
                                 *****************
                                 * O   R   C   A *
                                 *****************

                                            #,                                       
                                            ###                                      
                                            ####                                     
                                            #####                                    
                                            ######                                   
                                           ########,                                 
                                     ,,################,,,,,                         
                               ,,#################################,,                 
                          ,,##########################################,,             
                       ,#########################################, ''#####,          
                    ,#############################################,,   '####,        
                  ,##################################################,,,,####,       
                ,###########''''           ''''###############################       
              ,#####''   ,,,,##########,,,,          '''####'''          '####       
            ,##' ,,,,###########################,,,                        '##       
           ' ,,###''''                  '''############,,,                           
         ,,##''                                '''############,,,,        ,,,,,,###''
      ,#''                                            '''#######################'''  
     '                                                          ''''####''''         
             ,#######,   #######,   ,#######,      ##                                
            ,#'     '#,  ##    ##  ,#'     '#,    #''#        ,####,   ,####,        
            ##       ##  ##   ,#'  ##            #'  '#       #'       #'  '#        
            ##       ##  #######   ##           ,######,      #####,   #    #        
            '#,     ,#'  ##    ##  '#,     ,#' ,#      #,     #,   #   #,  ,#        
             '#######'   ##     ##  '#######'  #'      '#     '####' # '####'        



                #########################################################
                #                        -***-                          #
                #          Department of theory and spectroscopy        #
                #                                                       #
                #                      Frank Neese                      #
                #                                                       #
                #     Directorship, Architecture, Infrastructure        #
                #                    SHARK, DRIVERS                     #
                #        Core code/Algorithms in most modules           #
                #                                                       #
                #        Max Planck Institute fuer Kohlenforschung      #
                #                Kaiser Wilhelm Platz 1                 #
                #                 D-45470 Muelheim/Ruhr                 #
                #                      Germany                          #
                #                                                       #
                #                  All rights reserved                  #
                #                        -***-                          #
                #########################################################


                         Program Version 6.0.1  -  RELEASE   -


 With contributions from (in alphabetic order):
[Max-Planck-Institut fuer Kohlenforschung]                               
  Daniel Aravena         : Magnetic Suceptibility                        
  Michael Atanasov       : Ab Initio Ligand Field Theory (pilot matlab implementation)
  Alexander A. Auer      : GIAO ZORA, VPT2 properties, NMR spectrum      
  Ute Becker             : All parallelization in ORCA, NUMFREQ, NUMCALC 
  Giovanni Bistoni       : ED, misc. LED, open-shell LED, HFLD           
  Martin Brehm           : Molecular dynamics                            
  Dmytro Bykov           : pre 5.0 version of the SCF Hessian            
  Marcos Casanova-Páez   : Triplet and SCS-CIS(D). UHF-(DLPNO)-IP/EA/STEOM-CCSD. UHF-CVS-IP/STEOM-CCSD   
  Vijay G. Chilkuri      : MRCI spin determinant printing, contributions to CSF-ICE 
  Pauline Colinet        : FMM embedding                                 
  Dipayan Datta          : RHF DLPNO-CCSD density                        
  Achintya Kumar Dutta   : EOM-CC, STEOM-CC                              
  Nicolas Foglia         : Exact transition moments, OPA infrastructure, MCD improvements    
  Dmitry Ganyushin       : Spin-Orbit,Spin-Spin,Magnetic field MRCI      
  Miquel Garcia-Rates    : C-PCM and meta-GGA Hessian, CCSD/C-PCM, Gaussian charge scheme 
  Tiago L. C. Gouveia    : GS-ROHF, GS-ROCIS                             
  Yang Guo               : DLPNO-NEVPT2, F12-NEVPT2, CIM, IAO-localization        
  Andreas Hansen         : Spin unrestricted coupled pair/coupled cluster methods 
  Ingolf Harden          : AUTO-CI MPn and infrastructure                
  Benjamin Helmich-Paris : MC-RPA, TRAH-(SCF,CASSCF), AVAS, COSX integrals, SCF dyn. polar. 
  Lee Huntington         : MR-EOM, pCC                                   
  Robert Izsak           : Overlap fitted RIJCOSX, COSX-SCS-MP3, EOM     
  Riya Kayal             : Wick's Theorem for AUTO-CI, AUTO-CI UHF-CCSDT 
  Emily Kempfer          : AUTO-CI, RHF CISDT and CCSDT                  
  Christian Kollmar      : KDIIS, OOCD, Brueckner-CCSD(T), CCSD density, CASPT2, CASPT2-K, improved NEVPT2 
  Axel Koslowski         : Symmetry handling                             
  Simone Kossmann        : meta-GGA functionals, TD-DFT gradient, OOMP2, (MP2 Hessian; deprecated post 5.0) 
  Lucas Lang             : DCDCAS                                        
  Marvin Lechner         : AUTO-CI (C++ implementation), FIC-MRCC        
  Spencer Leger          : CASSCF response                               
  Dagmar Lenk            : GEPOL surface, SMD, ORCA-2-JSON               
  Dimitrios Liakos       : Extrapolation schemes; Compound Job, initial MDCI parallelization 
  Dimitrios Manganas     : Further ROCIS development; embedding schemes. LFT, Crystal Embedding 
  Dimitrios Pantazis     : SARC Basis sets                               
  Anastasios Papadopoulos: AUTO-CI, single reference methods and gradients 
  Taras Petrenko         : pre 6.0 DFT Hessian and TD-DFT gradient, (ASA, deprecated), ECA, 1-Electron XAS/XES, NRVS 
  Peter Pinski           : DLPNO-MP2, DLPNO-MP2 Gradient                 
  Christoph Reimann      : Effective Core Potentials                     
  Marius Retegan         : Local ZFS, SOC                                
  Christoph Riplinger    : Optimizer, TS searches, QM/MM, DLPNO-CCSD(T), (RO)-DLPNO pert. Triples 
  Michael Roemelt        : Original ROCIS implementation                 
  Masaaki Saitow         : Open-shell DLPNO-CCSD energy and density      
  Barbara Sandhoefer     : DKH picture change effects                    
  Kantharuban Sivalingam : CASSCF convergence/infrastructure, NEVPT2 and variants, FIC-MRCI 
  Bernardo de Souza      : ESD, SOC TD-DFT                               
  Georgi L. Stoychev     : AutoAux, RI-MP2 NMR, DLPNO-MP2 response, X2C  
  Van Anh Tran           : RI-MP2 g-tensors                              
  Willem Van den Heuvel  : Paramagnetic NMR                              
  Zikuan Wang            : NOTCH, Electric field optimization            
  Frank Wennmohs         : Technical directorship and infrastructure     
  Hang Xu                : AUTO-CI-Response properties                   
                                                                         
[FACCTs GmbH]                                                            
  Markus Bursch, Miquel Garcia-Rates, Christoph Riplinger, Bernardo de Souza, Georgi L. Stoychev 
                                                                 
  APM, Basis sets (HGBS, AHGBS, def-TZVP (Ac-Lr), def2-XVPD (La-Lu)), CI-OPT, improved COSX, DLPNO-Multilevel,           
  DOCKER, DRACO, updates on ESD, GOAT, IRC, LR-CPCM, MBIS, meta-GGA TD-DFT gradient, ML-optimized integration grids, 
  MM, NACMEs, nearIR, NEB, NEB-TS, NL-DFT gradient (VV10), 2- and 3-layer-ONIOM, interface openCOSMO-RS, QMMM,   
  Crystal-QMMM, SF, symmetry and pop. for TD-DFT, r2SCAN hybrids, SOLVATOR                                   
                                                                         
[Other institutions]                                                     
  V. Asgeirsson          : NEB                                           
  Christoph Bannwarth    : sTDA-DFT, sTD-DFT, PBEh-3c, B97-3c, D3        
  Sebastian Ehlert       : rSCAN, r2SCAN, r2SCAN-3c, D4, dhf basis sets  
  Marvin Friede          : D4 for Fr, Ra, Ac-Lr                          
  Lars Goerigk           : TD-DFT with DH, B97 family of functionals     
  Stefan Grimme          : VdW corrections, initial TS optimization, DFT functionals, gCP, sTDA/sTD-DF 
  Waldemar Hujo          : DFT-NL                                        
  H. Jonsson             : NEB                                           
  Holger Kruse           : gCP                                           
  Marcel Mueller         : wB97X-3c, vDZP basis set                      
  Hagen Neugebauer       : wr2SCAN                                       
  Tobias Risthaus        : range-separated hybrid DFT                    
  Lukas Wittmann         : regularized MP2, r2SCAN double-hybrids, wr2SCAN        
                                                                         
We gratefully acknowledge several colleagues who have allowed us to      
interface, adapt or use parts of their codes:                            
  Ed Valeev, F. Pavosevic, A. Kumar             : LibInt (2-el integral package), F12 methods 
  Garnet Chan, S. Sharma, J. Yang, R. Olivares  : DMRG                   
  Ulf Ekstrom                                   : XCFun DFT Library      
  Mihaly Kallay                                 : mrcc  (arbitrary order and MRCC methods)
  Frank Weinhold                                : gennbo (NPA and NBO analysis)           
  Simon Mueller                                 : openCOSMO-RS                            
  Christopher J. Cramer and Donald G. Truhlar   : smd solvation model                     
  S Lehtola, MJT Oliveira, MAL Marques          : LibXC Library                           
  Liviu Ungur et al                             : ANISO software                          


 Your calculation uses the libint2 library for the computation of 2-el integrals
 For citations please refer to: http://libint.valeyev.net

 Your ORCA version has been built with support for libXC version: 6.2.2
 For citations please refer to: https://libxc.gitlab.io

 This ORCA versions uses:
   CBLAS   interface :  Fast vector & matrix operations
   LAPACKE interface :  Fast linear algebra routines
   SCALAPACK package :  Parallel linear algebra routines
   Shared memory     :  Shared parallel matrices
   BLAS/LAPACK       :  OpenBLAS 0.3.27  USE64BITINT DYNAMIC_ARCH NO_AFFINITY Cooperlake SINGLE_THREADED
        Core in use  :  Cooperlake
   Copyright (c) 2011-2014, The OpenBLAS Project


Warning: RI is on but no J-basis has been assigned. Assigning Def2/J (nothing to worry about!)
================================================================================

----- Orbital basis set information -----
Your calculation utilizes the basis: 6-311G*
   H, Li - Ne  : R. Krishnan, J. S. Binkley, R. Seeger and J. A. Pople, J. Chem. Phys. 72, 650 (1980).
   Na - Ar     : A. D. McLean and G. S. Chandler J. Chem. Phys. 72, 5639, (1980).
   K  - Ca     : J.-P. Blaudeau, M. P. McGrath, L. A. Curtiss and L. Radom, J. Chem. Phys. 107, 5016 (1997).
   Ga - Kr     : L. A. Curtiss, M. P. McGrath, J.-P. Blandeau, N. E. Davis, R. C. Binning and L. Radom, J. Chem. Phys. 103, 6104 (1995).
   Pol./Diff.
   H, Li - Cl  : T. Clark, J. Chandrasekhar and P. v. R. Schleyer, J. Comp. Chem. 4, 294 (1983).
   H - Ne      : M. J. Frisch, J. A. Pople and J. S. Binkley, J. Chem. Phys. 80, 3265 (1984).

----- AuxJ basis set information -----
Your calculation utilizes the auxiliary basis: def2/J
   F. Weigend, Phys. Chem. Chem. Phys. 8, 1057 (2006).

================================================================================
                                        WARNINGS
                       Please study these warnings very carefully!
================================================================================

INFO   : Checking CIS options ...

WARNING: (CIS/TDDFT): Analytic excited state gradients requested
  ===> : turning on equilibrium dielectric conditions.

WARNING: Analytical Frequencies for this method not available!
  ===> : Switching to Numerical Frequencies!

WARNING: Geometry Optimization
  ===> : Switching off AutoStart
         For restart on a previous wavefunction, please use MOREAD

WARNING: CIS/ROCIS methods need fully converged wavefunctions
  ===> : Setting SCFConvForced true
         You can overwrite this default with %scf ConvForced false 


================================================================================
                                       INPUT FILE
================================================================================
NAME = 3.inp
|  1> ! B3LYP/G OPT FREQ 6-311G* CPCM(Water)
|  2> 
|  3> %tddft
|  4>     NRoots 3
|  5>     IRoot 1
|  6> end 
|  7> 
|  8> * xyz 1 1 
|  9> C  -3.47262362536682633873 -0.55193254196802521427 1.86903503578289642562
| 10> C  -3.47877254227856447244 -0.69782370381254965608 0.55430395426239120749
| 11> C  -3.89897727193752130503 -1.54798570596737361527 1.57841580129324920989
| 12> C  -3.17447295894793501958 -1.66052380622195272508 2.73930607842403173180
| 13> C  -2.38517401406239315520 0.11781304596349362335 0.73916914681602974291
| 14> C  -1.68810176950041279653 0.10781638410681404494 1.97253412353203283480
| 15> O  -1.79000602468897263009 0.85541365947212599785 -0.25643381844518819968
| 16> C  -2.03607432050333914120 -0.86898819033452356919 2.94184688896287038773
| 17> C  -1.18116833667696008447 -1.07603672360270685715 4.06397454132008473238
| 18> C  0.00354719391779889648 -0.42974840108554746010 4.17098221066915186839
| 19> C  -0.58114386992023459033 0.96140958968568757115 2.24135962049272796648
| 20> C  0.34752762171743167841 0.60588475628284643726 3.25569783856423589086
| 21> N  -0.38993130022726796291 2.12797215998030697648 1.56683541710606366593
| 22> C  0.77859929266584959606 2.78095098692092346226 1.63584250190328206465
| 23> C  1.80041971568265202208 2.35259014856150461270 2.45670545300020926049
| 24> C  1.55175509336255856851 1.31394596317244127803 3.33687546488314179527
| 25> C  -2.42273465567494383777 1.18136878858775817847 -1.43218864007692925355
| 26> O  -3.63561652274342783642 1.28075111736130775597 -1.53190733103866083553
| 27> N  -1.54831497589203581633 1.40584892257976123986 -2.40888660267147614036
| 28> C  -0.11215338622890991260 1.31214804575333521264 -2.24529751312256076190
| 29> C  -2.00872080153029131111 1.87923816241369423530 -3.69667117019777968778
| 30> H  -3.08923995310704535555 2.00110424266764930223 -3.66631593172643022172
| 31> H  -1.75207667590697435678 1.15414481085683950923 -4.46948258933508668633
| 32> H  -1.53935769455116178150 2.83412165674707594576 -3.92925175348690114419
| 33> H  0.30237672107275548328 2.28517372999618695317 -1.97919412223519142202
| 34> H  0.31627477453806274177 0.98312312379694410946 -3.18968336226193205363
| 35> H  0.13425261304889746228 0.59231007750699671277 -1.46991166108760307196
| 36> H  -3.45963007956374823948 -2.37519820004188186857 3.49449307055977786973
| 37> H  -4.01060923142720326950 -0.67989350239786539021 -0.38330354551689649334
| 38> H  -4.77708620106637305014 -2.15354852397537044340 1.42081021673173557573
| 39> H  -1.47622336500535622505 -1.81652029199861431152 4.79016671983818298486
| 40> H  0.69821911313142637212 -0.66087773500703139717 4.96203293432594172430
| 41> H  0.84602371804600462468 3.67971890696761150252 1.04224036573440081987
| 42> H  2.74115020787995700147 2.87718195392584119574 2.45938975666553849564
| 43> H  2.27235984891029163535 1.04474917939710443271 4.09364385229695670887
| 44> P  -1.76009110587227657341 3.15237906446799076576 1.13436351628768661293
| 45> O  -3.10750858126901707834 2.62122467049685514695 1.34664660551546311318
| 46> O  -1.27815181976862213276 3.61739756754027919072 -0.28420748238979109956
| 47> O  -1.43145047355229571018 4.39717179990928741518 2.06669799952041088886
| 48> C  -2.12404318124731261719 4.40543066518313430890 -1.14016203147746164603
| 49> C  -2.14170941064298192558 4.61078173328939389108 3.29051553452970457769
| 50> C  -2.52628089600873995124 5.72283812229132138327 -0.50937263195900905899
| 51> H  -3.01497981882653709462 3.82379491488024481072 -1.39715681339125064042
| 52> H  -1.52000014329085941789 4.56788581649095348780 -2.03437917230697662418
| 53> H  -3.18312883794633094681 5.54683288590138623420 0.34106110907318520908
| 54> H  -3.05901142946360149466 6.32160446335016956709 -1.24255802082932786945
| 55> H  -1.64804998265176649852 6.26797495735454202048 -0.17330037078143134543
| 56> C  -1.63669316211636273195 3.70248893883548024775 4.39551399414943144706
| 57> H  -3.20827845259657618016 4.44047719376840532846 3.11608648296100199104
| 58> H  -1.97297856535445692572 5.66199700200859545873 3.53007810727926285566
| 59> H  -1.88019226165952368923 2.66646052675696054735 4.16534855787802982263
| 60> H  -2.11967090840405791852 3.97292910841134006006 5.32970192428650957339
| 61> H  -0.56101096975229525210 3.80775596744437017094 4.50987475449757546642
| 62> *
| 63> 
| 64>                          ****END OF INPUT****
================================================================================

                       *****************************
                       * Geometry Optimization Run *
                       *****************************

Geometry optimization settings:
Update method            Update   .... BFGS
Choice of coordinates    CoordSys .... (2022) Redundant Internals
Initial Hessian          InHess   .... Almloef's Model
Max. no of cycles        MaxIter  .... 159

Convergence Tolerances:
Energy Change            TolE     ....  5.0000e-06 Eh
Max. Gradient            TolMAXG  ....  3.0000e-04 Eh/bohr
RMS Gradient             TolRMSG  ....  1.0000e-04 Eh/bohr
Max. Displacement        TolMAXD  ....  4.0000e-03 bohr
RMS Displacement         TolRMSD  ....  2.0000e-03 bohr
Strict Convergence                .... False

------------------------------------------------------------------------------
                        ORCA OPTIMIZATION COORDINATE SETUP
------------------------------------------------------------------------------

The optimization will be done in redundant internal coordinates (2022)
Making redundant internal coordinates   ...  (2022 redundants) done
Evaluating the initial hessian          ...  (Almloef) done
Evaluating the coordinates              ...  done
Calculating the B-matrix                .... done
Calculating the G-matrix                .... done
Diagonalizing the G-matrix              .... done
Small eigenvalue found = 1.819e-03
Small eigenvalue found = 4.791e-03
Small eigenvalue found = 5.072e-03
Small eigenvalue found = 7.959e-03
Small eigenvalue found = 1.113e-02
Small eigenvalue found = 1.322e-02
Small eigenvalue found = 1.847e-02
Small eigenvalue found = 2.476e-02
Small eigenvalue found = 2.798e-02
The first mode is                       ....  208
The number of degrees of freedom        ....  153

    -----------------------------------------------------------------
                    Redundant Internal Coordinates


    -----------------------------------------------------------------
         Definition                    Initial Value    Approx d2E/dq
    -----------------------------------------------------------------
      1. B(C   1,C   0)                  1.3228         0.799701   
      2. B(C   2,C   0)                  1.1218         1.673743   
      3. B(C   2,C   1)                  1.3958         0.611709   
      4. B(C   3,C   2)                  1.3730         0.664964   
      5. B(C   3,C   0)                  1.4406         0.518870   
      6. B(C   4,C   1)                  1.3767         0.656000   
      7. B(C   4,C   0)                  1.7052         0.196272   
      8. B(C   5,C   4)                  1.4168         0.566305   
      9. B(C   5,C   0)                  1.9054         0.094074   
     10. B(O   6,C   4)                  1.3746         0.592184   
     11. B(C   7,C   5)                  1.4194         0.560757   
     12. B(C   7,C   3)                  1.4013         0.599500   
     13. B(C   7,C   0)                  1.8207         0.128383   
     14. B(C   8,C   7)                  1.4258         0.547801   
     15. B(C   9,C   8)                  1.3538         0.713745   
     16. B(C  10,C   5)                  1.4235         0.552525   
     17. B(C  11,C  10)                  1.4205         0.558649   
     18. B(C  11,C   9)                  1.4243         0.550846   
     19. B(N  12,C  10)                  1.3610         0.622428   
     20. B(C  13,N  12)                  1.3404         0.671503   
     21. B(C  14,C  13)                  1.3789         0.650748   
     22. B(C  15,C  14)                  1.3839         0.638840   
     23. B(C  15,C  11)                  1.3993         0.603760   
     24. B(C  16,O   6)                  1.3744         0.592591   
     25. B(O  17,C  16)                  1.2210         1.041031   
     26. B(N  18,C  16)                  1.3300         0.697554   
     27. B(C  19,N  18)                  1.4485         0.451409   
     28. B(C  20,N  18)                  1.4472         0.453499   
     29. B(H  21,C  20)                  1.0878         0.363031   
     30. B(H  22,C  20)                  1.0904         0.359637   
     31. B(H  23,C  20)                  1.0891         0.361257   
     32. B(H  24,C  19)                  1.0906         0.359297   
     33. B(H  25,C  19)                  1.0880         0.362799   
     34. B(H  26,C  19)                  1.0863         0.364992   
     35. B(H  27,C   3)                  1.0781         0.376139   
     36. B(H  28,C   1)                  1.0781         0.376204   
     37. B(H  29,C   2)                  1.0782         0.375985   
     38. B(H  30,C   8)                  1.0783         0.375917   
     39. B(H  31,C   9)                  1.0778         0.376543   
     40. B(H  32,C  13)                  1.0792         0.374661   
     41. B(H  33,C  14)                  1.0771         0.377554   
     42. B(H  34,C  15)                  1.0791         0.374825   
     43. B(P  35,N  12)                  1.7646         0.475045   
     44. B(O  36,P  35)                  1.4638         1.434232   
     45. B(O  37,P  35)                  1.5687         0.975548   
     46. B(O  38,P  35)                  1.5896         0.903554   
     47. B(C  39,O  37)                  1.4385         0.468328   
     48. B(C  40,O  38)                  1.4310         0.481311   
     49. B(C  41,C  39)                  1.5150         0.394725   
     50. B(H  42,C  39)                  1.0946         0.354086   
     51. B(H  43,H  23)                  2.5684         0.000302   
     52. B(H  43,C  39)                  1.0913         0.358416   
     53. B(H  44,C  41)                  1.0889         0.361582   
     54. B(H  45,C  41)                  1.0862         0.365129   
     55. B(H  46,C  41)                  1.0869         0.364189   
     56. B(C  47,C  40)                  1.5169         0.391958   
     57. B(H  48,C  40)                  1.0941         0.354750   
     58. B(H  49,C  40)                  1.0913         0.358398   
     59. B(H  50,C  47)                  1.0889         0.361607   
     60. B(H  51,C  47)                  1.0859         0.365606   
     61. B(H  52,C  47)                  1.0869         0.364286   
     62. A(C   2,C   0,C   4)          114.8012         0.422011   
     63. A(C   1,C   0,C   3)          121.0987         0.440089   
     64. A(C   3,C   0,C   7)           49.2126         0.321065   
     65. A(C   4,C   0,C   5)           45.7909         0.262575   
     66. A(C   3,C   0,C   5)           92.2814         0.305295   
     67. A(C   1,C   0,C   5)           95.5393         0.327544   
     68. A(C   1,C   0,C   7)          124.7556         0.344936   
     69. A(C   5,C   0,C   7)           44.7121         0.246674   
     70. A(C   2,C   0,C   7)          107.3317         0.391505   
     71. A(C   2,C   0,C   5)          132.6476         0.370948   
     72. A(C   2,C   0,C   3)           63.3758         0.503971   
     73. A(C   1,C   0,C   2)           69.0726         0.546656   
     74. A(C   1,C   0,C   4)           52.2462         0.370746   
     75. A(C   4,C   0,C   7)           87.4581         0.275230   
     76. A(C   3,C   0,C   4)          124.7888         0.344468   
     77. A(C   0,C   1,C   4)           78.3174         0.459227   
     78. A(C   0,C   1,C   2)           48.6491         0.453416   
     79. A(C   4,C   1,H  28)          119.9198         0.358962   
     80. A(C   2,C   1,H  28)          119.9824         0.354724   
     81. A(C   0,C   1,H  28)          149.8640         0.371340   
     82. A(C   2,C   1,C   4)          120.0978         0.437439   
     83. A(C   1,C   2,H  29)          118.6861         0.354689   
     84. A(C   0,C   2,H  29)          147.7870         0.422669   
     85. A(C   0,C   2,C   3)           69.7072         0.527938   
     86. A(C   1,C   2,C   3)          120.7589         0.438511   
     87. A(C   0,C   2,C   1)           62.2783         0.519723   
     88. A(C   3,C   2,H  29)          120.4824         0.359757   
     89. A(C   2,C   3,C   7)          120.3044         0.436920   
     90. A(C   0,C   3,C   7)           79.6746         0.417923   
     91. A(C   2,C   3,H  27)          120.4640         0.359782   
     92. A(C   7,C   3,H  27)          119.2142         0.353504   
     93. A(C   0,C   3,H  27)          151.4660         0.344997   
     94. A(C   0,C   3,C   2)           46.9170         0.425729   
     95. A(C   0,C   4,O   6)          165.1932         0.350059   
     96. A(C   0,C   4,C   1)           49.4364         0.358394   
     97. A(C   5,C   4,O   6)          114.9159         0.420816   
     98. A(C   1,C   4,O   6)          124.3731         0.432044   
     99. A(C   1,C   4,C   5)          120.2351         0.431409   
    100. A(C   0,C   4,C   5)           74.5838         0.349576   
    101. A(C   0,C   5,C  10)          161.1232         0.308394   
    102. A(C   0,C   5,C   4)           59.6252         0.309620   
    103. A(C   7,C   5,C  10)          118.3163         0.417628   
    104. A(C   4,C   5,C  10)          122.8742         0.418361   
    105. A(C   4,C   5,C   7)          118.6023         0.419465   
    106. A(C   0,C   5,C   7)           64.4827         0.309129   
    107. A(C   4,O   6,C  16)          123.1981         0.421483   
    108. A(C   5,C   7,C   8)          119.3658         0.416990   
    109. A(C   3,C   7,C   8)          121.2552         0.421987   
    110. A(C   0,C   7,C   8)          164.1720         0.323933   
    111. A(C   3,C   7,C   5)          119.2870         0.423753   
    112. A(C   0,C   7,C   5)           70.8052         0.325179   
    113. A(C   0,C   7,C   3)           51.1128         0.328778   
    114. A(C   9,C   8,H  30)          120.9349         0.364119   
    115. A(C   7,C   8,H  30)          117.7542         0.348125   
    116. A(C   7,C   8,C   9)          121.1718         0.435396   
    117. A(C  11,C   9,H  31)          118.1578         0.348548   
    118. A(C   8,C   9,H  31)          121.3093         0.364223   
    119. A(C   8,C   9,C  11)          120.5096         0.435831   
    120. A(C   5,C  10,C  11)          119.5501         0.417348   
    121. A(C  11,C  10,N  12)          118.4621         0.423546   
    122. A(C   5,C  10,N  12)          121.9808         0.422712   
    123. A(C  10,C  11,C  15)          118.5164         0.424005   
    124. A(C   9,C  11,C  15)          122.5805         0.422940   
    125. A(C   9,C  11,C  10)          118.8807         0.417122   
    126. A(C  10,N  12,C  13)          120.9652         0.434902   
    127. A(C  13,N  12,P  35)          113.9995         0.442545   
    128. A(C  10,N  12,P  35)          120.6612         0.436524   
    129. A(N  12,C  13,C  14)          121.6908         0.441302   
    130. A(C  14,C  13,H  32)          122.6731         0.358221   
    131. A(N  12,C  13,H  32)          115.5855         0.357910   
    132. A(C  13,C  14,C  15)          118.5934         0.440239   
    133. A(C  15,C  14,H  33)          121.3898         0.357565   
    134. A(C  13,C  14,H  33)          119.8272         0.358690   
    135. A(C  11,C  15,C  14)          119.8336         0.434331   
    136. A(C  14,C  15,H  34)          120.8808         0.357124   
    137. A(C  11,C  15,H  34)          119.2840         0.353719   
    138. A(O  17,C  16,N  18)          125.4052         0.480970   
    139. A(O   6,C  16,N  18)          111.4428         0.434037   
    140. A(O   6,C  16,O  17)          123.1246         0.466766   
    141. A(C  19,N  18,C  20)          115.9177         0.383301   
    142. A(C  16,N  18,C  20)          119.9670         0.413766   
    143. A(C  16,N  18,C  19)          123.9179         0.413427   
    144. A(H  25,C  19,H  26)          109.2600         0.291799   
    145. A(H  24,C  19,H  26)          109.3188         0.291355   
    146. A(N  18,C  19,H  26)          110.3878         0.333342   
    147. A(H  24,C  19,H  25)          109.3863         0.291079   
    148. A(N  18,C  19,H  25)          108.1779         0.333009   
    149. A(N  18,C  19,H  24)          110.2856         0.332474   
    150. A(N  18,C  20,H  22)          109.7722         0.332781   
    151. A(N  18,C  20,H  21)          109.1363         0.333299   
    152. A(H  22,C  20,H  23)          109.2838         0.290927   
    153. A(H  21,C  20,H  23)          109.6217         0.291357   
    154. A(N  18,C  20,H  23)          109.8589         0.333029   
    155. A(H  21,C  20,H  22)          109.1525         0.291151   
    156. A(O  37,P  35,O  38)          103.5763         0.572513   
    157. A(O  36,P  35,O  38)          112.9173         0.616583   
    158. A(N  12,P  35,O  38)           98.6462         0.499842   
    159. A(O  36,P  35,O  37)          121.4328         0.625817   
    160. A(N  12,P  35,O  37)           98.9266         0.507033   
    161. A(N  12,P  35,O  36)          117.9397         0.545134   
    162. A(P  35,O  37,C  39)          121.3208         0.472493   
    163. A(P  35,O  38,C  40)          121.0564         0.468236   
    164. A(H  42,C  39,H  43)          109.7095         0.289858   
    165. A(C  41,C  39,H  43)          111.0195         0.327018   
    166. A(O  37,C  39,H  43)          104.1021         0.334373   
    167. A(C  41,C  39,H  42)          110.1037         0.326364   
    168. A(O  37,C  39,H  42)          109.1020         0.333699   
    169. A(O  37,C  39,C  41)          112.6283         0.378969   
    170. A(H  48,C  40,H  49)          109.6134         0.289941   
    171. A(O  38,C  40,H  49)          104.7609         0.335894   
    172. A(C  47,C  40,H  48)          110.3334         0.326087   
    173. A(O  38,C  40,H  48)          108.9214         0.335323   
    174. A(O  38,C  40,C  47)          111.6141         0.380306   
    175. A(C  47,C  40,H  49)          111.4321         0.326636   
    176. A(H  45,C  41,H  46)          109.1784         0.291992   
    177. A(H  44,C  41,H  46)          109.0862         0.291544   
    178. A(C  39,C  41,H  46)          110.5079         0.327880   
    179. A(H  44,C  41,H  45)          108.6886         0.291662   
    180. A(C  39,C  41,H  45)          109.1787         0.328019   
    181. A(C  39,C  41,H  44)          110.1688         0.327492   
    182. A(H  51,C  47,H  52)          108.9999         0.292064   
    183. A(H  50,C  47,H  52)          109.6167         0.291559   
    184. A(C  40,C  47,H  52)          110.3744         0.327514   
    185. A(H  50,C  47,H  51)          108.6241         0.291725   
    186. A(C  40,C  47,H  51)          109.2377         0.327710   
    187. A(C  40,C  47,H  50)          109.9554         0.327116   
    188. D(C   4,C   1,C   0,C   7)    -52.7282         0.061321   
    189. D(C   2,C   1,C   0,C   3)     37.7220         0.061321   
    190. D(C   2,C   1,C   0,C   5)    133.7610         0.061321   
    191. D(C   4,C   1,C   0,C   5)    -16.0242         0.061321   
    192. D(C   2,C   1,C   0,C   4)    149.7852         0.061321   
    193. D(C   4,C   1,C   0,C   3)   -112.0633         0.061321   
    194. D(C   4,C   1,C   0,C   2)   -149.7852         0.061321   
    195. D(C   2,C   1,C   0,C   7)     97.0571         0.061321   
    196. D(C   3,C   2,C   0,C   4)    118.1272         0.343078   
    197. D(C   3,C   2,C   0,C   7)     22.7895         0.343078   
    198. D(C   3,C   2,C   0,C   5)     66.3473         0.343078   
    199. D(C   1,C   2,C   0,C   3)   -144.1236         0.343078   
    200. D(C   3,C   2,C   1,H  28)    174.9187         0.030191   
    201. D(C   3,C   2,C   0,C   1)    144.1236         0.343078   
    202. D(H  29,C   2,C   1,C   0)    143.3184         0.030191   
    203. D(C   0,C   2,C   1,C   4)     34.7237         0.030191   
    204. D(C   1,C   2,C   0,C   4)    -25.9964         0.343078   
    205. D(C   1,C   2,C   0,C   5)    -77.7764         0.343078   
    206. D(C   3,C   2,C   1,C   0)    -39.7654         0.030191   
    207. D(C   0,C   2,C   1,H  28)   -145.3159         0.030191   
    208. D(C   3,C   2,C   1,C   4)     -5.0417         0.030191   
    209. D(C   1,C   2,C   0,C   7)   -121.3341         0.343078   
    210. D(C   7,C   3,C   0,C   4)     47.8764         0.024057   
    211. D(C   0,C   3,C   2,C   1)     37.1350         0.036126   
    212. D(C   2,C   3,C   0,C   7)   -150.7668         0.024057   
    213. D(C   7,C   3,C   0,C   1)    111.0307         0.024057   
    214. D(C   2,C   3,C   0,C   4)   -102.8904         0.024057   
    215. D(C   2,C   3,C   0,C   5)   -137.6018         0.024057   
    216. D(C   7,C   3,C   0,C   5)     13.1650         0.024057   
    217. D(C   7,C   3,C   0,C   2)    150.7668         0.024057   
    218. D(C   7,C   3,C   2,H  29)   -179.8181         0.036126   
    219. D(H  27,C   3,C   2,C   0)    147.7175         0.036126   
    220. D(C   0,C   3,C   2,H  29)   -146.0042         0.036126   
    221. D(C   7,C   3,C   2,C   1)      3.3210         0.036126   
    222. D(C   7,C   3,C   2,C   0)    -33.8139         0.036126   
    223. D(C   2,C   3,C   0,C   1)    -39.7362         0.024057   
    224. D(O   6,C   4,C   1,C   0)   -163.0070         0.035081   
    225. D(C   5,C   4,C   1,H  28)    179.4710         0.035081   
    226. D(C   5,C   4,C   1,C   2)     -0.5685         0.035081   
    227. D(C   0,C   4,C   1,H  28)    154.1495         0.035081   
    228. D(C   0,C   4,C   1,C   2)    -25.8900         0.035081   
    229. D(C   5,C   4,C   0,C   7)    -18.3387         0.004263   
    230. D(C   1,C   4,C   0,C   7)    139.1226         0.004263   
    231. D(C   1,C   4,C   0,C   5)    157.4613         0.004263   
    232. D(C   1,C   4,C   0,C   3)    104.9199         0.004263   
    233. D(C   5,C   4,C   1,C   0)     25.3215         0.035081   
    234. D(C   5,C   4,C   0,C   1)   -157.4613         0.004263   
    235. D(C   5,C   4,C   0,C   2)   -126.2763         0.004263   
    236. D(C   1,C   4,C   0,C   2)     31.1850         0.004263   
    237. D(C   5,C   4,C   0,C   3)    -52.5414         0.004263   
    238. D(C   7,C   5,C   4,C   1)      7.6411         0.025638   
    239. D(C   7,C   5,C   4,C   0)     27.3378         0.025638   
    240. D(C   0,C   5,C   4,O   6)    167.8783         0.025638   
    241. D(C   7,C   5,C   0,C   4)   -153.4632         0.002103   
    242. D(C   7,C   5,C   0,C   3)    -14.1881         0.002103   
    243. D(C   7,C   5,C   0,C   2)    -69.2245         0.002103   
    244. D(C   7,C   5,C   0,C   1)   -135.7361         0.002103   
    245. D(C   0,C   5,C   4,C   1)    -19.6967         0.025638   
    246. D(C   4,C   5,C   0,C   3)    139.2751         0.002103   
    247. D(C   4,C   5,C   0,C   2)     84.2387         0.002103   
    248. D(C   4,C   5,C   0,C   7)    153.4632         0.002103   
    249. D(C   7,C   5,C   4,O   6)   -164.7839         0.025638   
    250. D(C   4,C   5,C   0,C   1)     17.7271         0.002103   
    251. D(C  10,C   5,C   4,C   0)   -157.9850         0.025638   
    252. D(C  16,O   6,C   4,C   5)   -167.9726         0.028205   
    253. D(C  16,O   6,C   4,C   1)     19.9588         0.028205   
    254. D(C  16,O   6,C   4,C   0)    -40.3562         0.028205   
    255. D(C   3,C   7,C   5,C  10)    175.8149         0.025113   
    256. D(C   3,C   7,C   5,C   4)     -9.2625         0.025113   
    257. D(C   3,C   7,C   5,C   0)     16.7792         0.025113   
    258. D(C   0,C   7,C   5,C  10)    159.0358         0.025113   
    259. D(C   0,C   7,C   5,C   4)    -26.0416         0.025113   
    260. D(C   8,C   7,C   3,C   0)    163.0054         0.028921   
    261. D(C   5,C   7,C   3,H  27)   -177.6135         0.028921   
    262. D(C   5,C   7,C   3,C   2)      3.8990         0.028921   
    263. D(C   5,C   7,C   3,C   0)    -20.5031         0.028921   
    264. D(C   0,C   7,C   3,H  27)   -157.1104         0.028921   
    265. D(C   0,C   7,C   3,C   2)     24.4020         0.028921   
    266. D(C   5,C   7,C   0,C   4)     18.6969         0.002641   
    267. D(C   5,C   7,C   0,C   3)    161.1271         0.002641   
    268. D(C   5,C   7,C   0,C   2)    133.9110         0.002641   
    269. D(C   5,C   7,C   0,C   1)     57.7320         0.002641   
    270. D(C   3,C   7,C   0,C   5)   -161.1271         0.002641   
    271. D(C   3,C   7,C   0,C   4)   -142.4301         0.002641   
    272. D(C   3,C   7,C   0,C   2)    -27.2160         0.002641   
    273. D(C   8,C   7,C   5,C   0)   -166.6622         0.025113   
    274. D(C   3,C   7,C   0,C   1)   -103.3951         0.002641   
    275. D(H  30,C   8,C   7,C   3)     -4.1984         0.022270   
    276. D(H  30,C   8,C   7,C   0)     52.3259         0.022270   
    277. D(C   9,C   8,C   7,C   5)     -4.9368         0.022270   
    278. D(C   9,C   8,C   7,C   3)    171.5520         0.022270   
    279. D(C   9,C   8,C   7,C   0)   -131.9237         0.022270   
    280. D(H  31,C   9,C   8,H  30)      2.1922         0.036000   
    281. D(H  31,C   9,C   8,C   7)   -173.4232         0.036000   
    282. D(C  11,C   9,C   8,H  30)   -176.0223         0.036000   
    283. D(C  11,C   9,C   8,C   7)      8.3623         0.036000   
    284. D(N  12,C  10,C   5,C   4)     22.9816         0.022672   
    285. D(N  12,C  10,C   5,C   0)    -68.6947         0.022672   
    286. D(C  11,C  10,C   5,C   7)     16.6962         0.022672   
    287. D(C  11,C  10,C   5,C   4)   -157.9955         0.022672   
    288. D(C  11,C  10,C   5,C   0)    110.3283         0.022672   
    289. D(C  15,C  11,C  10,N  12)    -12.7675         0.021374   
    290. D(C  15,C  11,C  10,C   5)    168.1752         0.021374   
    291. D(C   9,C  11,C  10,N  12)    165.5555         0.021374   
    292. D(C   9,C  11,C  10,C   5)    -13.5019         0.021374   
    293. D(C  15,C  11,C   9,H  31)      0.8643         0.020760   
    294. D(C  15,C  11,C   9,C   8)    179.1340         0.020760   
    295. D(C  10,C  11,C   9,H  31)   -177.3869         0.020760   
    296. D(C  10,C  11,C   9,C   8)      0.8828         0.020760   
    297. D(P  35,N  12,C  10,C  11)   -140.6668         0.031390   
    298. D(P  35,N  12,C  10,C   5)     38.3664         0.031390   
    299. D(C  13,N  12,C  10,C  11)     14.4469         0.031390   
    300. D(C  13,N  12,C  10,C   5)   -166.5199         0.031390   
    301. D(H  32,C  13,N  12,P  35)    -25.2221         0.037016   
    302. D(H  32,C  13,N  12,C  10)    178.1214         0.037016   
    303. D(C  14,C  13,N  12,P  35)    152.2545         0.037016   
    304. D(C  14,C  13,N  12,C  10)     -4.4020         0.037016   
    305. D(H  33,C  14,C  13,H  32)     -5.1496         0.029490   
    306. D(H  33,C  14,C  13,N  12)    177.5543         0.029490   
    307. D(C  15,C  14,C  13,H  32)    169.9170         0.029490   
    308. D(C  15,C  14,C  13,N  12)     -7.3792         0.029490   
    309. D(C  11,C  15,C  14,H  33)   -176.4334         0.028349   
    310. D(C  11,C  15,C  14,C  13)      8.5805         0.028349   
    311. D(H  34,C  15,C  11,C  10)   -179.1196         0.025147   
    312. D(H  34,C  15,C  11,C   9)      2.6232         0.025147   
    313. D(C  14,C  15,C  11,C  10)      1.3400         0.025147   
    314. D(C  14,C  15,C  11,C   9)   -176.9172         0.025147   
    315. D(H  34,C  15,C  14,H  33)      4.0337         0.028349   
    316. D(H  34,C  15,C  14,C  13)   -170.9524         0.028349   
    317. D(N  18,C  16,O   6,C   4)   -155.1848         0.025607   
    318. D(O  17,C  16,O   6,C   4)     26.6265         0.025607   
    319. D(C  20,N  18,C  16,O  17)      3.6326         0.040238   
    320. D(C  20,N  18,C  16,O   6)   -174.5063         0.040238   
    321. D(C  19,N  18,C  16,O  17)    178.3130         0.040238   
    322. D(C  19,N  18,C  16,O   6)      0.1741         0.040238   
    323. D(H  26,C  19,N  18,C  16)     28.8573         0.017384   
    324. D(H  25,C  19,N  18,C  20)    -36.7663         0.017384   
    325. D(H  25,C  19,N  18,C  16)    148.3570         0.017384   
    326. D(H  24,C  19,N  18,C  20)     82.8272         0.017384   
    327. D(H  24,C  19,N  18,C  16)    -92.0495         0.017384   
    328. D(H  23,C  20,N  18,C  16)    120.9010         0.017548   
    329. D(H  22,C  20,N  18,C  19)     66.0043         0.017548   
    330. D(H  22,C  20,N  18,C  16)   -118.9028         0.017548   
    331. D(H  21,C  20,N  18,C  19)   -174.4074         0.017548   
    332. D(H  21,C  20,N  18,C  16)      0.6855         0.017548   
    333. D(O  38,P  35,N  12,C  10)    113.0452         0.005025   
    334. D(O  37,P  35,N  12,C  13)     61.6321         0.005025   
    335. D(O  37,P  35,N  12,C  10)   -141.6334         0.005025   
    336. D(O  36,P  35,N  12,C  13)   -165.4582         0.005025   
    337. D(O  36,P  35,N  12,C  10)     -8.7236         0.005025   
    338. D(C  39,O  37,P  35,O  38)    -84.4413         0.016345   
    339. D(C  39,O  37,P  35,O  36)     43.6625         0.016345   
    340. D(C  39,O  37,P  35,N  12)    174.3443         0.016345   
    341. D(C  40,O  38,P  35,O  37)    155.9593         0.014084   
    342. D(C  40,O  38,P  35,O  36)     22.7583         0.014084   
    343. D(C  40,O  38,P  35,N  12)   -102.6099         0.014084   
    344. D(H  43,C  39,O  37,P  35)    179.8478         0.017287   
    345. D(H  42,C  39,O  37,P  35)    -63.0875         0.017287   
    346. D(C  41,C  39,O  37,P  35)     59.4904         0.017287   
    347. D(H  49,C  40,O  38,P  35)   -161.0779         0.018277   
    348. D(H  48,C  40,O  38,P  35)    -43.8664         0.018277   
    349. D(C  47,C  40,O  38,P  35)     78.2021         0.018277   
    350. D(H  45,C  41,C  39,H  43)     56.8959         0.012374   
    351. D(H  45,C  41,C  39,H  42)    -64.7978         0.012374   
    352. D(H  45,C  41,C  39,O  37)    173.1888         0.012374   
    353. D(H  44,C  41,C  39,H  43)    176.1821         0.012374   
    354. D(H  44,C  41,C  39,H  42)     54.4884         0.012374   
    355. D(H  44,C  41,C  39,O  37)    -67.5249         0.012374   
    356. D(H  51,C  47,C  40,H  49)     56.8661         0.012209   
    357. D(H  51,C  47,C  40,H  48)    -65.1420         0.012209   
    358. D(H  51,C  47,C  40,O  38)    173.6062         0.012209   
    359. D(H  50,C  47,C  40,H  49)    175.9808         0.012209   
    360. D(H  50,C  47,C  40,H  48)     53.9727         0.012209   
    361. D(H  50,C  47,C  40,O  38)    -67.2791         0.012209   
    -----------------------------------------------------------------

Number of atoms                         .... 53
Number of degrees of freedom            .... 361


         *************************************************************
         *                GEOMETRY OPTIMIZATION CYCLE   1            *
         *************************************************************
---------------------------------
CARTESIAN COORDINATES (ANGSTROEM)
---------------------------------
  C     -3.472624   -0.551933    1.869035
  C     -3.478773   -0.697824    0.554304
  C     -3.898977   -1.547986    1.578416
  C     -3.174473   -1.660524    2.739306
  C     -2.385174    0.117813    0.739169
  C     -1.688102    0.107816    1.972534
  O     -1.790006    0.855414   -0.256434
  C     -2.036074   -0.868988    2.941847
  C     -1.181168   -1.076037    4.063975
  C      0.003547   -0.429748    4.170982
  C     -0.581144    0.961410    2.241360
  C      0.347528    0.605885    3.255698
  N     -0.389931    2.127972    1.566835
  C      0.778599    2.780951    1.635843
  C      1.800420    2.352590    2.456705
  C      1.551755    1.313946    3.336875
  C     -2.422735    1.181369   -1.432189
  O     -3.635617    1.280751   -1.531907
  N     -1.548315    1.405849   -2.408887
  C     -0.112153    1.312148   -2.245298
  C     -2.008721    1.879238   -3.696671
  H     -3.089240    2.001104   -3.666316
  H     -1.752077    1.154145   -4.469483
  H     -1.539358    2.834122   -3.929252
  H      0.302377    2.285174   -1.979194
  H      0.316275    0.983123   -3.189683
  H      0.134253    0.592310   -1.469912
  H     -3.459630   -2.375198    3.494493
  H     -4.010609   -0.679894   -0.383304
  H     -4.777086   -2.153549    1.420810
  H     -1.476223   -1.816520    4.790167
  H      0.698219   -0.660878    4.962033
  H      0.846024    3.679719    1.042240
  H      2.741150    2.877182    2.459390
  H      2.272360    1.044749    4.093644
  P     -1.760091    3.152379    1.134364
  O     -3.107509    2.621225    1.346647
  O     -1.278152    3.617398   -0.284207
  O     -1.431450    4.397172    2.066698
  C     -2.124043    4.405431   -1.140162
  C     -2.141709    4.610782    3.290516
  C     -2.526281    5.722838   -0.509373
  H     -3.014980    3.823795   -1.397157
  H     -1.520000    4.567886   -2.034379
  H     -3.183129    5.546833    0.341061
  H     -3.059011    6.321604   -1.242558
  H     -1.648050    6.267975   -0.173300
  C     -1.636693    3.702489    4.395514
  H     -3.208278    4.440477    3.116086
  H     -1.972979    5.661997    3.530078
  H     -1.880192    2.666461    4.165349
  H     -2.119671    3.972929    5.329702
  H     -0.561011    3.807756    4.509875

----------------------------
CARTESIAN COORDINATES (A.U.)
----------------------------
  NO LB      ZA    FRAG     MASS         X           Y           Z
   0 C     6.0000    0    12.011   -6.562308   -1.043001    3.531964
   1 C     6.0000    0    12.011   -6.573927   -1.318696    1.047483
   2 C     6.0000    0    12.011   -7.367999   -2.925269    2.982774
   3 C     6.0000    0    12.011   -5.998885   -3.137935    5.176538
   4 C     6.0000    0    12.011   -4.507326    0.222634    1.396827
   5 C     6.0000    0    12.011   -3.190050    0.203743    3.727549
   6 O     8.0000    0    15.999   -3.382621    1.616498   -0.484590
   7 C     6.0000    0    12.011   -3.847623   -1.642150    5.559285
   8 C     6.0000    0    12.011   -2.232085   -2.033415    7.679799
   9 C     6.0000    0    12.011    0.006703   -0.812107    7.882014
  10 C     6.0000    0    12.011   -1.098203    1.816801    4.235556
  11 C     6.0000    0    12.011    0.656732    1.144956    6.152377
  12 N     7.0000    0    14.007   -0.736863    4.021285    2.960890
  13 C     6.0000    0    12.011    1.471339    5.255236    3.091294
  14 C     6.0000    0    12.011    3.402300    4.445751    4.642500
  15 C     6.0000    0    12.011    2.932392    2.482998    6.305781
  16 C     6.0000    0    12.011   -4.578305    2.232463   -2.706444
  17 O     8.0000    0    15.999   -6.870320    2.420269   -2.894885
  18 N     7.0000    0    14.007   -2.925891    2.656669   -4.552136
  19 C     6.0000    0    12.011   -0.211939    2.479600   -4.242997
  20 C     6.0000    0    12.011   -3.795932    3.551245   -6.985696
  21 H     1.0000    0     1.008   -5.837817    3.781539   -6.928333
  22 H     1.0000    0     1.008   -3.310945    2.181018   -8.446098
  23 H     1.0000    0     1.008   -2.908964    5.355714   -7.425210
  24 H     1.0000    0     1.008    0.571409    4.318353   -3.740135
  25 H     1.0000    0     1.008    0.597673    1.857833   -6.027628
  26 H     1.0000    0     1.008    0.253701    1.119304   -2.777730
  27 H     1.0000    0     1.008   -6.537753   -4.488474    6.603635
  28 H     1.0000    0     1.008   -7.578953   -1.284813   -0.724339
  29 H     1.0000    0     1.008   -9.027385   -4.069617    2.684942
  30 H     1.0000    0     1.008   -2.789658   -3.432726    9.052103
  31 H     1.0000    0     1.008    1.319443   -1.248878    9.376883
  32 H     1.0000    0     1.008    1.598753    6.953661    1.969549
  33 H     1.0000    0     1.008    5.180023    5.437086    4.647573
  34 H     1.0000    0     1.008    4.294138    1.974290    7.735866
  35 P    15.0000    0    30.974   -3.326090    5.957133    2.143636
  36 O     8.0000    0    15.999   -5.872340    4.953397    2.544793
  37 O     8.0000    0    15.999   -2.415357    6.835891   -0.537074
  38 O     8.0000    0    15.999   -2.705049    8.309450    3.905493
  39 C     6.0000    0    12.011   -4.013860    8.325057   -2.154594
  40 C     6.0000    0    12.011   -4.047244    8.713115    6.218173
  41 C     6.0000    0    12.011   -4.773979   10.814597   -0.962575
  42 H     1.0000    0     1.008   -5.697486    7.225925   -2.640244
  43 H     1.0000    0     1.008   -2.872384    8.632053   -3.844419
  44 H     1.0000    0     1.008   -6.015242   10.481995    0.644512
  45 H     1.0000    0     1.008   -5.780694   11.946101   -2.348094
  46 H     1.0000    0     1.008   -3.114363   11.844756   -0.327490
  47 C     6.0000    0    12.011   -3.092902    6.996690    8.306318
  48 H     1.0000    0     1.008   -6.062768    8.391286    5.888550
  49 H     1.0000    0     1.008   -3.728389   10.699624    6.670881
  50 H     1.0000    0     1.008   -3.553048    5.038880    7.871368
  51 H     1.0000    0     1.008   -4.005598    7.507748   10.071677
  52 H     1.0000    0     1.008   -1.060157    7.195616    8.522428

--------------------------------
INTERNAL COORDINATES (ANGSTROEM)
--------------------------------
 C      0   0   0     0.000000000000     0.00000000     0.00000000
 C      1   0   0     1.322815125783     0.00000000     0.00000000
 C      1   2   0     1.121765963520    69.07257335     0.00000000
 C      3   1   2     1.373039532966    69.70722597   144.12364822
 C      2   1   3     1.376733884206    78.31742441   210.21475450
 C      5   2   1     1.416756441022   120.23505110    25.32149739
 O      5   2   1     1.374592617854   124.37306652   196.99301546
 C      4   3   1     1.401250466963   120.30439090   326.18605636
 C      8   4   3     1.425799356325   121.25523405   187.40745093
 C      9   8   4     1.353768859722   121.17177127   171.55201769
 C      6   5   2     1.423462082343   122.87418868   182.31832433
 C     11   6   5     1.420461427560   119.55013473   202.00454897
 N     11   6   5     1.361033937187   121.98081333    22.98155016
 C     13  11   6     1.340375720726   120.96516535   193.48010314
 C     14  13  11     1.378922031595   121.69081290   355.59804468
 C     15  14  13     1.383949091569   118.59341651   352.62083730
 C      7   5   2     1.374405932487   123.19807918    19.95881274
 O     17   7   5     1.221025424823   123.12462378    26.62649848
 N     17   7   5     1.330015043932   111.44275213   204.81520179
 C     19  17   7     1.448482432120   123.91788116     0.17407057
 C     19  17   7     1.447224926897   119.96699731   185.49372281
 H     21  19  17     1.087793371437   109.13633347     0.68554848
 H     21  19  17     1.090350432310   109.77222954   241.09724657
 H     21  19  17     1.089127146694   109.85892785   120.90099831
 H     20  19  17     1.090607723564   110.28558229   267.95052549
 H     20  19  17     1.087967242274   108.17786954   148.35701658
 H     20  19  17     1.086326763246   110.38780326    28.85732952
 H      4   3   1     1.078137962281   120.46395859   147.71754650
 H      2   1   3     1.078090710325   149.86404409    79.04257651
 H      3   1   2     1.078249107699   147.78700350   259.44515765
 H      9   8   4     1.078298875520   117.75415503   355.80161679
 H     10   9   8     1.077845578801   121.30931274   186.57681773
 H     14  13  11     1.079209582661   115.58546866   178.12139197
 H     15  14  13     1.077115419392   119.82720323   177.55427502
 H     16  15  14     1.079090595966   120.88076624   189.04760433
 P     13  11   6     1.764590418189   120.66120447    38.36639202
 O     36  13  11     1.463804274215   117.93973518   351.27637019
 O     36  13  11     1.568710094944    98.92656293   218.36663849
 O     36  13  11     1.589578940488    98.64618782   113.04518324
 C     38  36  13     1.438466735281   121.32079582   174.34433715
 C     39  36  13     1.431022823142   121.05638035   257.39006921
 C     40  38  36     1.515009192634   112.62825154    59.49035897
 H     40  38  36     1.094584193263   109.10196953   296.91254374
 H     40  38  36     1.091276299955   104.10211661   179.84783055
 H     42  40  38     1.088882275524   110.16877089   292.47505125
 H     42  40  38     1.086224547188   109.17868531   173.18883608
 H     42  40  38     1.086926065035   110.50791309    53.09297594
 C     41  39  36     1.516924127138   111.61409045    78.20209481
 H     41  39  36     1.094074335439   108.92136583   316.13359284
 H     41  39  36     1.091290000688   104.76086619   198.92210284
 H     48  41  39     1.088863081460   109.95538600   292.72088788
 H     48  41  39     1.085869456953   109.23767240   173.60616178
 H     48  41  39     1.086854042541   110.37442210    53.77544545

---------------------------
INTERNAL COORDINATES (A.U.)
---------------------------
 C      0   0   0     0.000000000000     0.00000000     0.00000000
 C      1   0   0     2.499758313538     0.00000000     0.00000000
 C      1   2   0     2.119830457408    69.07257335     0.00000000
 C      3   1   2     2.594668688352    69.70722597   144.12364822
 C      2   1   3     2.601650000438    78.31742441   210.21475450
 C      5   2   1     2.677281672000   120.23505110    25.32149739
 O      5   2   1     2.597603593455   124.37306652   196.99301546
 C      4   3   1     2.647979627590   120.30439090   326.18605636
 C      8   4   3     2.694370305375   121.25523405   187.40745093
 C      9   8   4     2.558252393506   121.17177127   171.55201769
 C      6   5   2     2.689953497650   122.87418868   182.31832433
 C     11   6   5     2.684283081888   119.55013473   202.00454897
 N     11   6   5     2.571981400256   121.98081333    22.98155016
 C     13  11   6     2.532943028730   120.96516535   193.48010314
 C     14  13  11     2.605784999745   121.69081290   355.59804468
 C     15  14  13     2.615284766354   118.59341651   352.62083730
 C      7   5   2     2.597250809238   123.19807918    19.95881274
 O     17   7   5     2.307403655469   123.12462378    26.62649848
 N     17   7   5     2.513364187026   111.44275213   204.81520179
 C     19  17   7     2.737235106504   123.91788116     0.17407057
 C     19  17   7     2.734858766019   119.96699731   185.49372281
 H     21  19  17     2.055631562312   109.13633347     0.68554848
 H     21  19  17     2.060463707068   109.77222954   241.09724657
 H     21  19  17     2.058152032271   109.85892785   120.90099831
 H     20  19  17     2.060949917075   110.28558229   267.95052549
 H     20  19  17     2.055960130575   108.17786954   148.35701658
 H     20  19  17     2.052860074485   110.38780326    28.85732952
 H      4   3   1     2.037385483294   120.46395859   147.71754650
 H      2   1   3     2.037296190039   149.86404409    79.04257651
 H      3   1   2     2.037595517697   147.78700350   259.44515765
 H      9   8   4     2.037689565247   117.75415503   355.80161679
 H     10   9   8     2.036832958592   121.30931274   186.57681773
 H     14  13  11     2.039410552333   115.58546866   178.12139197
 H     15  14  13     2.035453157274   119.82720323   177.55427502
 H     16  15  14     2.039185700065   120.88076624   189.04760433
 P     13  11   6     3.334592628919   120.66120447    38.36639202
 O     36  13  11     2.766189191931   117.93973518   351.27637019
 O     36  13  11     2.964432462961    98.92656293   218.36663849
 O     36  13  11     3.003868865772    98.64618782   113.04518324
 C     38  36  13     2.718308182436   121.32079582   174.34433715
 C     39  36  13     2.704241227128   121.05638035   257.39006921
 C     40  38  36     2.862952464451   112.62825154    59.49035897
 H     40  38  36     2.068464355787   109.10196953   296.91254374
 H     40  38  36     2.062213343354   104.10211661   179.84783055
 H     42  40  38     2.057689292821   110.16877089   292.47505125
 H     42  40  38     2.052666914127   109.17868531   173.18883608
 H     42  40  38     2.053992590736   110.50791309    53.09297594
 C     41  39  36     2.866571166229   111.61409045    78.20209481
 H     41  39  36     2.067500864132   108.92136583   316.13359284
 H     41  39  36     2.062239233988   104.76086619   198.92210284
 H     48  41  39     2.057653021297   109.95538600   292.72088788
 H     48  41  39     2.051995890831   109.23767240   173.60616178
 H     48  41  39     2.053856487949   110.37442210    53.77544545

---------------------
BASIS SET INFORMATION
---------------------
There are 5 groups of distinct atoms

 Group   1 Type C   : 11s5p1d contracted to 4s3p1d pattern {6311/311/1}
 Group   2 Type O   : 11s5p1d contracted to 4s3p1d pattern {6311/311/1}
 Group   3 Type N   : 11s5p1d contracted to 4s3p1d pattern {6311/311/1}
 Group   4 Type H   : 5s contracted to 3s pattern {311}
 Group   5 Type P   : 13s9p1d contracted to 6s5p1d pattern {631111/42111/1}

Atom   0C    basis set group =>   1
Atom   1C    basis set group =>   1
Atom   2C    basis set group =>   1
Atom   3C    basis set group =>   1
Atom   4C    basis set group =>   1
Atom   5C    basis set group =>   1
Atom   6O    basis set group =>   2
Atom   7C    basis set group =>   1
Atom   8C    basis set group =>   1
Atom   9C    basis set group =>   1
Atom  10C    basis set group =>   1
Atom  11C    basis set group =>   1
Atom  12N    basis set group =>   3
Atom  13C    basis set group =>   1
Atom  14C    basis set group =>   1
Atom  15C    basis set group =>   1
Atom  16C    basis set group =>   1
Atom  17O    basis set group =>   2
Atom  18N    basis set group =>   3
Atom  19C    basis set group =>   1
Atom  20C    basis set group =>   1
Atom  21H    basis set group =>   4
Atom  22H    basis set group =>   4
Atom  23H    basis set group =>   4
Atom  24H    basis set group =>   4
Atom  25H    basis set group =>   4
Atom  26H    basis set group =>   4
Atom  27H    basis set group =>   4
Atom  28H    basis set group =>   4
Atom  29H    basis set group =>   4
Atom  30H    basis set group =>   4
Atom  31H    basis set group =>   4
Atom  32H    basis set group =>   4
Atom  33H    basis set group =>   4
Atom  34H    basis set group =>   4
Atom  35P    basis set group =>   5
Atom  36O    basis set group =>   2
Atom  37O    basis set group =>   2
Atom  38O    basis set group =>   2
Atom  39C    basis set group =>   1
Atom  40C    basis set group =>   1
Atom  41C    basis set group =>   1
Atom  42H    basis set group =>   4
Atom  43H    basis set group =>   4
Atom  44H    basis set group =>   4
Atom  45H    basis set group =>   4
Atom  46H    basis set group =>   4
Atom  47C    basis set group =>   1
Atom  48H    basis set group =>   4
Atom  49H    basis set group =>   4
Atom  50H    basis set group =>   4
Atom  51H    basis set group =>   4
Atom  52H    basis set group =>   4
---------------------------------
AUXILIARY/J BASIS SET INFORMATION
---------------------------------
There are 5 groups of distinct atoms

 Group   1 Type C   : 12s5p4d2f1g contracted to 6s4p3d1f1g pattern {711111/2111/211/2/1}
 Group   2 Type O   : 12s5p4d2f1g contracted to 6s4p3d1f1g pattern {711111/2111/211/2/1}
 Group   3 Type N   : 12s5p4d2f1g contracted to 6s4p3d1f1g pattern {711111/2111/211/2/1}
 Group   4 Type H   : 5s2p1d contracted to 3s1p1d pattern {311/2/1}
 Group   5 Type P   : 14s5p5d2f1g contracted to 8s4p3d1f1g pattern {71111111/2111/311/2/1}

Atom   0C    basis set group =>   1
Atom   1C    basis set group =>   1
Atom   2C    basis set group =>   1
Atom   3C    basis set group =>   1
Atom   4C    basis set group =>   1
Atom   5C    basis set group =>   1
Atom   6O    basis set group =>   2
Atom   7C    basis set group =>   1
Atom   8C    basis set group =>   1
Atom   9C    basis set group =>   1
Atom  10C    basis set group =>   1
Atom  11C    basis set group =>   1
Atom  12N    basis set group =>   3
Atom  13C    basis set group =>   1
Atom  14C    basis set group =>   1
Atom  15C    basis set group =>   1
Atom  16C    basis set group =>   1
Atom  17O    basis set group =>   2
Atom  18N    basis set group =>   3
Atom  19C    basis set group =>   1
Atom  20C    basis set group =>   1
Atom  21H    basis set group =>   4
Atom  22H    basis set group =>   4
Atom  23H    basis set group =>   4
Atom  24H    basis set group =>   4
Atom  25H    basis set group =>   4
Atom  26H    basis set group =>   4
Atom  27H    basis set group =>   4
Atom  28H    basis set group =>   4
Atom  29H    basis set group =>   4
Atom  30H    basis set group =>   4
Atom  31H    basis set group =>   4
Atom  32H    basis set group =>   4
Atom  33H    basis set group =>   4
Atom  34H    basis set group =>   4
Atom  35P    basis set group =>   5
Atom  36O    basis set group =>   2
Atom  37O    basis set group =>   2
Atom  38O    basis set group =>   2
Atom  39C    basis set group =>   1
Atom  40C    basis set group =>   1
Atom  41C    basis set group =>   1
Atom  42H    basis set group =>   4
Atom  43H    basis set group =>   4
Atom  44H    basis set group =>   4
Atom  45H    basis set group =>   4
Atom  46H    basis set group =>   4
Atom  47C    basis set group =>   1
Atom  48H    basis set group =>   4
Atom  49H    basis set group =>   4
Atom  50H    basis set group =>   4
Atom  51H    basis set group =>   4
Atom  52H    basis set group =>   4
------------------------------------------------------------------------------
                             ORCA STARTUP CALCULATIONS
                           -- RI-GTO INTEGRALS CHOSEN --
------------------------------------------------------------------------------
------------------------------------------------------------------------------
                   ___                                                        
                  /   \      - P O W E R E D   B Y -                         
                 /     \                                                     
                 |  |  |   _    _      __       _____    __    __             
                 |  |  |  | |  | |    /  \     |  _  \  |  |  /  |          
                  \  \/   | |  | |   /    \    | | | |  |  | /  /          
                 / \  \   | |__| |  /  /\  \   | |_| |  |  |/  /          
                |  |  |   |  __  | /  /__\  \  |    /   |      \           
                |  |  |   | |  | | |   __   |  |    \   |  |\   \          
                \     /   | |  | | |  |  |  |  | |\  \  |  | \   \       
                 \___/    |_|  |_| |__|  |__|  |_| \__\ |__|  \__/        
                                                                              
                      - O R C A' S   B I G   F R I E N D -                    
                                      &                                       
                       - I N T E G R A L  F E E D E R -                       
                                                                              
 v1 FN, 2020, v2 2021, v3 2022-2024                                           
------------------------------------------------------------------------------


----------------------
SHARK INTEGRAL PACKAGE
----------------------

Number of atoms                             ...     53
Number of basis functions                   ...    602
Number of shells                            ...    308
Maximum angular momentum                    ...      2
Integral batch strategy                     ... SHARK/LIBINT Hybrid
RI-J (if used) integral strategy            ... SPLIT-RIJ (Revised 2003 algorithm where possible)
Printlevel                                  ...      1
Contraction scheme used                     ... SEGMENTED contraction
Prescreening option                         ... SCHWARTZ
   Thresh                                   ... 2.500e-11
   Tcut                                     ... 2.500e-12
   Tpresel                                  ... 2.500e-12 
Coulomb Range Separation                    ... NOT USED
Exchange Range Separation                   ... NOT USED
Multipole approximations                    ... NOT USED
Finite Nucleus Model                        ... NOT USED
CABS basis                                  ... NOT available
Auxiliary Coulomb fitting basis             ... AVAILABLE
   # of basis functions in Aux-J            ...   1687
   # of shells in Aux-J                     ...    557
   Maximum angular momentum in Aux-J        ...      4
Auxiliary J/K fitting basis                 ... NOT available
Auxiliary Correlation fitting basis         ... NOT available
Auxiliary 'external' fitting basis          ... NOT available

Checking pre-screening integrals            ... done (  0.0 sec) Dimension = 308
Check shell pair data                       ... done (  0.0 sec)
Shell pair information
Shell pair cut-off parameter TPreSel        ...   2.5e-12
Total number of shell pairs                 ...     47586
Shell pairs after pre-screening             ...     32546
Total number of primitive shell pairs       ...    192575
Primitive shell pairs kept                  ...     76434
          la=0 lb=0:  11631 shell pairs
          la=1 lb=0:  12077 shell pairs
          la=1 lb=1:   3162 shell pairs
          la=2 lb=0:   3469 shell pairs
          la=2 lb=1:   1910 shell pairs
          la=2 lb=2:    297 shell pairs

Calculating one electron integrals          ... done (  0.1 sec)
Calculating RI/J V-Matrix + Cholesky decomp.... done (  0.5 sec)
Calculating Nuclear repulsion               ... done (  0.0 sec) ENN=   3421.443728554944 Eh

Diagonalization of the overlap matrix:
Smallest eigenvalue                        ... 8.222e-05
Time for diagonalization                   ...    0.028 sec
Threshold for overlap eigenvalues          ... 1.000e-07
Number of eigenvalues below threshold      ... 0
Time for construction of square roots      ...    0.265 sec
Total time needed                          ...    0.303 sec

-------------------
DFT GRID GENERATION
-------------------

General Integration Accuracy     IntAcc      ... 4.388
Radial Grid Type                 RadialGrid  ... OptM3 with GC (2021)
Angular Grid (max. ang.)         AngularGrid ... 4 (Lebedev-302)
Angular grid pruning method      GridPruning ... 4 (adaptive)
Weight generation scheme         WeightScheme... mBecke (2022)
Basis function cutoff            BFCut       ... 1.0000e-11
Integration weight cutoff        WCut        ... 1.0000e-14
Partially contracted basis set               ... off
Rotationally invariant grid construction     ... off
Angular grids for H and He will be reduced by one unit

Total number of grid points                  ...   249207
Total number of batches                      ...     3924
Average number of points per batch           ...       63
Average number of grid points per atom       ...     4702

--------------------
COSX GRID GENERATION
--------------------

GRIDX 1
-------
General Integration Accuracy     IntAcc      ... 3.816
Radial Grid Type                 RadialGrid  ... OptM3 with GC (2021)
Angular Grid (max. ang.)         AngularGrid ... 1 (Lebedev-50)
Angular grid pruning method      GridPruning ... 4 (adaptive)
Weight generation scheme         WeightScheme... mBecke (2022)
Basis function cutoff            BFCut       ... 1.0000e-11
Integration weight cutoff        WCut        ... 1.0000e-14
Partially contracted basis set               ... on
Rotationally invariant grid construction     ... off
Angular grids for H and He will be reduced by one unit

Total number of grid points                  ...    32590
Total number of batches                      ...      284
Average number of points per batch           ...      114
Average number of grid points per atom       ...      615
UseSFitting                                  ... on

GRIDX 2
-------
General Integration Accuracy     IntAcc      ... 4.020
Radial Grid Type                 RadialGrid  ... OptM3 with GC (2021)
Angular Grid (max. ang.)         AngularGrid ... 2 (Lebedev-110)
Angular grid pruning method      GridPruning ... 4 (adaptive)
Weight generation scheme         WeightScheme... mBecke (2022)
Basis function cutoff            BFCut       ... 1.0000e-11
Integration weight cutoff        WCut        ... 1.0000e-14
Partially contracted basis set               ... on
Rotationally invariant grid construction     ... off
Angular grids for H and He will be reduced by one unit

Total number of grid points                  ...    67686
Total number of batches                      ...      559
Average number of points per batch           ...      121
Average number of grid points per atom       ...     1277
UseSFitting                                  ... on

GRIDX 3
-------
General Integration Accuracy     IntAcc      ... 4.338
Radial Grid Type                 RadialGrid  ... OptM3 with GC (2021)
Angular Grid (max. ang.)         AngularGrid ... 3 (Lebedev-194)
Angular grid pruning method      GridPruning ... 4 (adaptive)
Weight generation scheme         WeightScheme... mBecke (2022)
Basis function cutoff            BFCut       ... 1.0000e-11
Integration weight cutoff        WCut        ... 1.0000e-14
Partially contracted basis set               ... on
Rotationally invariant grid construction     ... off
Angular grids for H and He will be reduced by one unit

Total number of grid points                  ...   147737
Total number of batches                      ...     1184
Average number of points per batch           ...      124
Average number of grid points per atom       ...     2787
UseSFitting                                  ... on
Initializing property integral containers    ... done (  0.0 sec)

SHARK setup successfully completed in  10.2 seconds

Maximum memory used throughout the entire STARTUP-calculation: 135.6 MB
-------------------------------------------------------------------------------
                                 ORCA GUESS
                   Start orbitals & Density for SCF / CASSCF
-------------------------------------------------------------------------------

------------
SCF SETTINGS
------------
Hamiltonian:
 Density Functional     Method          .... DFT(GTOs)
 Exchange Functional    Exchange        .... B88
   X-Alpha parameter    XAlpha          ....  0.666667
   Becke's b parameter  XBeta           ....  0.004200
 Correlation Functional Correlation     .... LYP
 LDA part of GGA corr.  LDAOpt          .... VWN-3
 Gradients option       PostSCFGGA      .... off
 Hybrid DFT is turned on
   Fraction HF Exchange ScalHFX         ....  0.200000
   Scaling of DF-GGA-X  ScalDFX         ....  0.720000
   Scaling of DF-GGA-C  ScalDFC         ....  0.810000
   Scaling of DF-LDA-C  ScalLDAC        ....  1.000000
   Perturbative correction              ....  0.000000
   NL short-range parameter             ....  4.800000
 RI-approximation to the Coulomb term is turned on
   Number of AuxJ basis functions       .... 1687
   RIJ-COSX (HFX calculated with COS-X)).... on


General Settings:
 Integral files         IntName         .... 3
 Hartree-Fock type      HFTyp           .... RHF
 Total Charge           Charge          ....    1
 Multiplicity           Mult            ....    1
 Number of Electrons    NEL             ....  218
 Basis Dimension        Dim             ....  602
 Nuclear Repulsion      ENuc            ....   3421.4437285549 Eh

Convergence Acceleration:
 AO-DIIS                CNVDIIS         .... on
   Start iteration      DIISMaxIt       ....    12
   Startup error        DIISStart       ....  0.200000
   # of expansion vecs  DIISMaxEq       ....     5
   Bias factor          DIISBfac        ....   1.050
   Max. coefficient     DIISMaxC        ....  10.000
 MO-DIIS                CNVKDIIS        .... off
 Trust-Rad. Augm. Hess. CNVTRAH         .... auto
   Auto Start mean grad. ratio tolernc. ....  1.125000
   Auto Start start iteration           ....    50
   Auto Start num. interpolation iter.  ....    10
   Max. Number of Micro iterations      ....    24
   Max. Number of Macro iterations      .... Maxiter - #DIIS iter
   Number of Davidson start vectors     ....     2
   Converg. threshold    (grad. norm)   ....   1.000e-05
   Grad. Scal. Fac. for Micro threshold ....   0.100
   Minimum threshold for Micro iter.    ....   1.000e-02
   NR start threshold (gradient norm)   ....   1.000e-04
   Initial trust radius                 ....   0.400
   Minimum AH scaling param. (alpha)    ....   1.000
   Maximum AH scaling param. (alpha)    .... 1000.000
   Quad. conv. algorithm                .... NR
   White noise on init. David. guess    .... on
   Maximum white noise                  ....   0.010
   Pseudo random numbers                .... off
   Inactive MOs                         .... canonical
   Orbital update algorithm             .... Taylor
   Preconditioner                       .... Diag
   Full preconditioner red. dimension   ....   250
 SOSCF                  CNVSOSCF        .... on
   Start iteration      SOSCFMaxIt      ....   150
   Startup grad/error   SOSCFStart      ....  0.003300
   Hessian update       SOSCFHessUp     .... L-BFGS
 Level Shifting         CNVShift        .... on
   Level shift para.    LevelShift      ....    0.2500
   Turn off err/grad.   ShiftErr        ....    0.0010
 Zerner damping         CNVZerner       .... off
 Static damping         CNVDamp         .... on
   Fraction old density DampFac         ....    0.7000
   Max. Damping (<1)    DampMax         ....    0.9800
   Min. Damping (>=0)   DampMin         ....    0.0000
   Turn off err/grad.   DampErr         ....    0.1000

SCF Procedure:
 Maximum # iterations   MaxIter         ....   125
 SCF integral mode      SCFMode         .... Direct
   Integral package                     .... SHARK and LIBINT hybrid scheme
 Reset frequency        DirectResetFreq ....    20
 Integral Threshold     Thresh          ....  2.500e-11 Eh
 Primitive CutOff       TCut            ....  2.500e-12 Eh

Convergence Tolerance:
 Convergence Check Mode ConvCheckMode   .... Total+1el-Energy
 Convergence forced     ConvForced      .... 1
 Energy Change          TolE            ....  1.000e-08 Eh
 1-El. energy change                    ....  1.000e-05 Eh
 Orbital Gradient       TolG            ....  1.000e-05
 Orbital Rotation angle TolX            ....  1.000e-05
 DIIS Error             TolErr          ....  5.000e-07

------------------------------
INITIAL GUESS: MODEL POTENTIAL
------------------------------
Loading Hartree-Fock densities                     ... done
Calculating cut-offs                               ... done
Initializing the effective Hamiltonian             ... done
Setting up the integral package (SHARK)            ... done
Starting the Coulomb interaction                   ... done (   1.9 sec)
Making the grid                                    ... done (   1.1 sec)
Mapping shells                                     ... done
Starting the XC term evaluation                    ... done (   0.6 sec)
  promolecular density results
     # of electrons  =    219.000568704
     EX              =   -192.567791186
     EC              =     -7.670100114
     EX+EC           =   -200.237891301
Transforming the Hamiltonian                       ... done (   0.0 sec)
Diagonalizing the Hamiltonian                      ... done (   0.0 sec)
Back transforming the eigenvectors                 ... done (   0.2 sec)
Now organizing SCF variables                       ... done
                      ------------------
                      INITIAL GUESS DONE (   4.2 sec)
                      ------------------
             **** ENERGY FILE WAS UPDATED (3.en.tmp) ****
Finished Guess after   5.5 sec
Maximum memory used throughout the entire GUESS-calculation: 85.9 MB

-------------------------------------------------------------------------------------------
                                      ORCA LEAN-SCF
                              memory conserving SCF solver
-------------------------------------------------------------------------------------------

--------------------
CPCM SOLVATION MODEL
--------------------
CPCM parameters:
  Epsilon                                         ...      80.1510
  Refrac                                          ...       1.3328
  Rsolv                                           ...       1.3000
  Surface type                                    ... GAUSSIAN VDW
  Discretization scheme                           ... Constant charge density
    Threshold for H atoms                         ...       5.0000 (charges/Ang^2)
    Threshold for non-H atoms                     ...       5.0000 (charges/Ang^2)
  Epsilon function type                           ...         CPCM
Solvent:                                          ... WATER
Radii:
  Scheme                                          ... Element-dependent radii
  Radius for C  used is    3.8550 Bohr (=   2.0400 Ang.)
  Radius for O  used is    3.4469 Bohr (=   1.8240 Ang.)
  Radius for N  used is    3.5149 Bohr (=   1.8600 Ang.)
  Radius for H  used is    2.4944 Bohr (=   1.3200 Ang.)
  Radius for P  used is    4.0818 Bohr (=   2.1600 Ang.)
Calculating surface                               ...        done! (  0.0s)
Cavity surface points                             ...         4159
Cavity Volume                                     ...    3035.1928
Cavity Surface-area                               ...    1430.8896
Calculating surface distance matrix               ...        done! (  0.1s)
Performing Cholesky decomposition & store         ...        done! (  6.3s)
Overall time for CPCM initialization              ...                 6.4s

----------------------------------------D-I-I-S--------------------------------------------
Iteration    Energy (Eh)           Delta-E    RMSDP     MaxDP     DIISErr   Damp  Time(sec)
[...]
137:   3044.30   0.002374   12.00  0.000243  (-0.010948 -0.010425  0.003852)
138:   3094.80   0.001758    8.89  0.000177  (-0.012318 -0.001263 -0.004896)
139:   3096.72   0.002729   13.79  0.000275  (-0.014570  0.007500 -0.002539)
140:   3097.93   0.012886   65.12  0.001298  (-0.004176  0.030590  0.018570)
141:   3100.92   0.000296    1.50  0.000030  ( 0.001431  0.004800  0.002174)
142:   3109.93   0.006988   35.31  0.000701  ( 0.004488 -0.024830 -0.008033)
143:   3113.09   0.008033   40.59  0.000805  ( 0.020898 -0.017143  0.008637)
144:   3114.70   0.005419   27.38  0.000543  (-0.023106  0.000954 -0.002844)
145:   3115.03   0.006247   31.57  0.000626  ( 0.009094 -0.013293 -0.019142)
146:   3159.10   0.005659   28.60  0.000559  ( 0.010758  0.021041  0.000751)
147:   3160.34   0.005751   29.06  0.000568  (-0.003136  0.007799  0.022298)
148:   3174.46   0.004144   20.94  0.000407  ( 0.007494  0.017743 -0.006035)
149:   3174.91   0.002365   11.95  0.000232  (-0.012905 -0.006565  0.004775)
150:   3189.12   0.001244    6.29  0.000122  ( 0.000033 -0.008487  0.007052)
151:   3195.37   0.004480   22.64  0.000438  ( 0.004298 -0.012561  0.016166)
152:   3200.81   0.009218   46.58  0.000899  (-0.019779 -0.010987 -0.019667)
153:   3209.60   0.000612    3.09  0.000059  (-0.005309 -0.005215 -0.002031)
154:   3219.42   0.000762    3.85  0.000074  (-0.006717 -0.001769 -0.005058)
155:   3229.82   0.019708   99.60  0.001904  ( 0.030435  0.017895  0.025644)
156:   3245.21   0.002917   14.74  0.000280  (-0.012173 -0.008643 -0.007590)
157:   3253.50   0.001364    6.89  0.000131  (-0.001734  0.006761 -0.009062)
158:   3306.01   0.093201  471.00  0.008797  ( 0.059634  0.054056  0.048159)

* The epsilon (eps) is given for a Dirac delta lineshape.
** The dipole moment derivative (T) already includes vibrational overlap.

The first frequency considered to be a vibration is 11
The total number of vibrations considered is 148


--------------------------
THERMOCHEMISTRY AT 298.15K
--------------------------

Temperature         ...   298.15 K
Pressure            ...     1.00 atm
Total Mass          ...   415.41 AMU
Quasi RRHO          ...     True
Cut-Off Frequency   ...     1.00 cm^-1

Throughout the following assumptions are being made:
  (1) The electronic state is orbitally nondegenerate
  (2) There are no thermally accessible electronically excited states
  (3) Hindered rotations indicated by low frequency modes are not
      treated as such but are treated as vibrations and this may
      cause some error
  (4) All equations used are the standard statistical mechanics
      equations for an ideal gas
  (5) All vibrations are strictly harmonic

freq.      24.45  E(vib)   ...       0.56 
freq.      39.40  E(vib)   ...       0.54 
freq.      43.57  E(vib)   ...       0.53 
freq.      52.80  E(vib)   ...       0.52 
freq.      66.68  E(vib)   ...       0.50 
freq.      67.87  E(vib)   ...       0.50 
freq.      88.78  E(vib)   ...       0.47 
freq.      93.12  E(vib)   ...       0.47 
freq.     101.30  E(vib)   ...       0.46 
freq.     117.50  E(vib)   ...       0.44 
freq.     140.64  E(vib)   ...       0.41 
freq.     147.60  E(vib)   ...       0.41 
freq.     174.36  E(vib)   ...       0.38 
freq.     183.89  E(vib)   ...       0.37 
freq.     199.81  E(vib)   ...       0.35 
freq.     217.37  E(vib)   ...       0.34 
freq.     224.95  E(vib)   ...       0.33 
freq.     236.71  E(vib)   ...       0.32 
freq.     245.62  E(vib)   ...       0.31 
freq.     257.48  E(vib)   ...       0.30 
freq.     275.41  E(vib)   ...       0.28 
freq.     289.30  E(vib)   ...       0.27 
freq.     295.43  E(vib)   ...       0.27 
freq.     320.49  E(vib)   ...       0.25 
freq.     361.72  E(vib)   ...       0.22 
freq.     369.83  E(vib)   ...       0.21 
freq.     384.72  E(vib)   ...       0.20 
freq.     385.76  E(vib)   ...       0.20 
freq.     392.43  E(vib)   ...       0.20 
freq.     430.11  E(vib)   ...       0.18 
freq.     447.27  E(vib)   ...       0.17 
freq.     457.75  E(vib)   ...       0.16 
freq.     477.58  E(vib)   ...       0.15 
freq.     490.13  E(vib)   ...       0.15 
freq.     498.00  E(vib)   ...       0.14 
freq.     516.94  E(vib)   ...       0.13 
freq.     531.27  E(vib)   ...       0.13 
freq.     540.69  E(vib)   ...       0.12 
freq.     549.85  E(vib)   ...       0.12 
freq.     593.54  E(vib)   ...       0.10 
freq.     619.62  E(vib)   ...       0.09 
freq.     632.97  E(vib)   ...       0.09 
freq.     652.83  E(vib)   ...       0.08 
freq.     665.05  E(vib)   ...       0.08 
freq.     697.27  E(vib)   ...       0.07 
freq.     715.75  E(vib)   ...       0.07 
freq.     733.61  E(vib)   ...       0.06 
freq.     747.92  E(vib)   ...       0.06 
freq.     753.29  E(vib)   ...       0.06 
freq.     767.91  E(vib)   ...       0.06 
freq.     778.51  E(vib)   ...       0.05 
freq.     786.13  E(vib)   ...       0.05 
freq.     795.77  E(vib)   ...       0.05 
freq.     809.95  E(vib)   ...       0.05 
freq.     810.91  E(vib)   ...       0.05 
freq.     816.36  E(vib)   ...       0.05 
freq.     831.02  E(vib)   ...       0.04 
freq.     839.57  E(vib)   ...       0.04 
freq.     877.35  E(vib)   ...       0.04 
freq.     909.84  E(vib)   ...       0.03 
freq.     924.52  E(vib)   ...       0.03 
freq.     933.88  E(vib)   ...       0.03 
freq.     945.02  E(vib)   ...       0.03 
freq.     968.85  E(vib)   ...       0.03 
freq.     969.77  E(vib)   ...       0.03 
freq.     975.49  E(vib)   ...       0.03 
freq.     995.33  E(vib)   ...       0.02 
freq.    1013.27  E(vib)   ...       0.02 
freq.    1017.18  E(vib)   ...       0.02 
freq.    1025.17  E(vib)   ...       0.02 
freq.    1048.59  E(vib)   ...       0.02 
freq.    1076.27  E(vib)   ...       0.02 
freq.    1080.32  E(vib)   ...       0.02 
freq.    1111.31  E(vib)   ...       0.01 
freq.    1116.33  E(vib)   ...       0.01 
freq.    1118.68  E(vib)   ...       0.01 
freq.    1120.63  E(vib)   ...       0.01 
freq.    1128.94  E(vib)   ...       0.01 
freq.    1132.58  E(vib)   ...       0.01 
freq.    1159.52  E(vib)   ...       0.01 
freq.    1163.30  E(vib)   ...       0.01 
freq.    1169.49  E(vib)   ...       0.01 
freq.    1180.43  E(vib)   ...       0.01 
freq.    1182.71  E(vib)   ...       0.01 
freq.    1183.15  E(vib)   ...       0.01 
freq.    1221.86  E(vib)   ...       0.01 
freq.    1235.63  E(vib)   ...       0.01 
freq.    1262.00  E(vib)   ...       0.01 
freq.    1262.53  E(vib)   ...       0.01 
freq.    1280.41  E(vib)   ...       0.01 
freq.    1284.54  E(vib)   ...       0.01 
freq.    1287.22  E(vib)   ...       0.01 
freq.    1313.15  E(vib)   ...       0.01 
freq.    1322.17  E(vib)   ...       0.01 
freq.    1323.82  E(vib)   ...       0.01 
freq.    1334.84  E(vib)   ...       0.01 
freq.    1371.29  E(vib)   ...       0.01 
freq.    1406.19  E(vib)   ...       0.00 
freq.    1409.02  E(vib)   ...       0.00 
freq.    1415.30  E(vib)   ...       0.00 
freq.    1422.78  E(vib)   ...       0.00 
freq.    1426.45  E(vib)   ...       0.00 
freq.    1438.81  E(vib)   ...       0.00 
freq.    1447.41  E(vib)   ...       0.00 
freq.    1462.11  E(vib)   ...       0.00 
freq.    1473.59  E(vib)   ...       0.00 
freq.    1482.59  E(vib)   ...       0.00 
freq.    1483.38  E(vib)   ...       0.00 
freq.    1488.28  E(vib)   ...       0.00 
freq.    1489.80  E(vib)   ...       0.00 
freq.    1490.22  E(vib)   ...       0.00 
freq.    1491.77  E(vib)   ...       0.00 
freq.    1495.45  E(vib)   ...       0.00 
freq.    1499.59  E(vib)   ...       0.00 
freq.    1501.49  E(vib)   ...       0.00 
freq.    1514.30  E(vib)   ...       0.00 
freq.    1519.99  E(vib)   ...       0.00 
freq.    1530.13  E(vib)   ...       0.00 
freq.    1533.22  E(vib)   ...       0.00 
freq.    1546.12  E(vib)   ...       0.00 
freq.    1611.40  E(vib)   ...       0.00 
freq.    1622.88  E(vib)   ...       0.00 
freq.    1781.39  E(vib)   ...       0.00 
freq.    3036.84  E(vib)   ...       0.00 
freq.    3039.19  E(vib)   ...       0.00 
freq.    3041.59  E(vib)   ...       0.00 
freq.    3044.30  E(vib)   ...       0.00 
freq.    3094.80  E(vib)   ...       0.00 
freq.    3096.72  E(vib)   ...       0.00 
freq.    3097.93  E(vib)   ...       0.00 
freq.    3100.92  E(vib)   ...       0.00 
freq.    3109.93  E(vib)   ...       0.00 
freq.    3113.09  E(vib)   ...       0.00 
freq.    3114.70  E(vib)   ...       0.00 
freq.    3115.03  E(vib)   ...       0.00 
freq.    3159.10  E(vib)   ...       0.00 
freq.    3160.34  E(vib)   ...       0.00 
freq.    3174.46  E(vib)   ...       0.00 
freq.    3174.91  E(vib)   ...       0.00 
freq.    3189.12  E(vib)   ...       0.00 
freq.    3195.37  E(vib)   ...       0.00 
freq.    3200.81  E(vib)   ...       0.00 
freq.    3209.60  E(vib)   ...       0.00 
freq.    3219.42  E(vib)   ...       0.00 
freq.    3229.82  E(vib)   ...       0.00 
freq.    3245.21  E(vib)   ...       0.00 
freq.    3253.50  E(vib)   ...       0.00 
freq.    3306.01  E(vib)   ...       0.00 

------------
INNER ENERGY
------------

The inner energy is: U= E(el) + E(ZPE) + E(vib) + E(rot) + E(trans)
    E(el)   - is the total energy from the electronic structure calculation
              = E(kin-el) + E(nuc-el) + E(el-el) + E(nuc-nuc)
    E(ZPE)  - the the zero temperature vibrational energy from the frequency calculation
    E(vib)  - the the finite temperature correction to E(ZPE) due to population
              of excited vibrational states
    E(rot)  - is the rotational thermal energy
    E(trans)- is the translational thermal energy

Summary of contributions to the inner energy U:
Electronic energy                ...  -1641.71594635 Eh
Zero point energy                ...      0.42492459 Eh     266.64 kcal/mol
Thermal vibrational correction   ...      0.02225897 Eh      13.97 kcal/mol
Thermal rotational correction    ...      0.00141627 Eh       0.89 kcal/mol
Thermal translational correction ...      0.00141627 Eh       0.89 kcal/mol
-----------------------------------------------------------------------
Total thermal energy                  -1641.26593025 Eh


Summary of corrections to the electronic energy:
(perhaps to be used in another calculation)
Total thermal correction                  0.02509151 Eh      15.75 kcal/mol
Non-thermal (ZPE) correction              0.42492459 Eh     266.64 kcal/mol
-----------------------------------------------------------------------
Total correction                          0.45001610 Eh     282.39 kcal/mol


--------
ENTHALPY
--------

The enthalpy is H = U + kB*T
                kB is Boltzmann's constant
Total thermal energy              ...  -1641.26593025 Eh 
Thermal Enthalpy correction       ...      0.00094421 Eh       0.59 kcal/mol
-----------------------------------------------------------------------
Total Enthalpy                    ...  -1641.26498604 Eh


Note: Only C1 symmetry has been detected, increase convergence thresholds 
      if your molecule has a higher symmetry. Symmetry factor of 1.0 is   
      used for the rotational entropy correction. 
 

Note: Rotational entropy computed according to Herzberg 
Infrared and Raman Spectra, Chapter V,1, Van Nostrand Reinhold, 1945 
Point Group:  C1, Symmetry Number:   1  
Rotational constants in cm-1:     0.006386     0.005950     0.004069 

Vibrational entropy computed according to the QRRHO of S. Grimme
Chem.Eur.J. 2012 18 9955 using a reference frequency of 100.0 cm-1


-------
ENTROPY
-------

The entropy contributions are T*S = T*(S(el)+S(vib)+S(rot)+S(trans))
     S(el)   - electronic entropy
     S(vib)  - vibrational entropy
     S(rot)  - rotational entropy
     S(trans)- translational entropy
The entropies will be listed as multiplied by the temperature to get
units of energy

Electronic entropy                ...      0.00000000 Eh      0.00 kcal/mol
Vibrational entropy               ...      0.03900673 Eh     24.48 kcal/mol
Rotational entropy                ...      0.01691437 Eh     10.61 kcal/mol
Translational entropy             ...      0.02088813 Eh     13.11 kcal/mol
-----------------------------------------------------------------------
Final entropy term                ...      0.07680923 Eh     48.20 kcal/mol

In case the symmetry of your molecule has not been determined correctly
or in case you have a reason to use a different symmetry number we print 
out the resulting rotational entropy values for sn=1,12:

 non-linear molecules -----------------------------------
|  sn= 1 | S(rot)=       0.01691437 Eh     10.61 kcal/mol|
|  sn= 2 | S(rot)=       0.01625991 Eh     10.20 kcal/mol|
|  sn= 3 | S(rot)=       0.01587708 Eh      9.96 kcal/mol|
|  sn= 4 | S(rot)=       0.01560546 Eh      9.79 kcal/mol|
|  sn= 5 | S(rot)=       0.01539477 Eh      9.66 kcal/mol|
|  sn= 6 | S(rot)=       0.01522263 Eh      9.55 kcal/mol|
|  sn= 7 | S(rot)=       0.01507708 Eh      9.46 kcal/mol|
|  sn= 8 | S(rot)=       0.01495100 Eh      9.38 kcal/mol|
|  sn= 9 | S(rot)=       0.01483979 Eh      9.31 kcal/mol|
|  sn=10 | S(rot)=       0.01474031 Eh      9.25 kcal/mol|
|  sn=11 | S(rot)=       0.01465032 Eh      9.19 kcal/mol|
|  sn=12 | S(rot)=       0.01456817 Eh      9.14 kcal/mol|
 linear molecules ---------------------------------------
|  Dinfh | S(rot)=       0.01052292 Eh      6.60 kcal/mol|
|  Cinfv | S(rot)=       0.01117737 Eh      7.01 kcal/mol|
 --------------------------------------------------------


-------------------
GIBBS FREE ENERGY
-------------------

The Gibbs free energy is G = H - T*S

Total enthalpy                    ...  -1641.26498604 Eh 
Total entropy correction          ...     -0.07680923 Eh    -48.20 kcal/mol
-----------------------------------------------------------------------
Final Gibbs free energy         ...  -1641.34179527 Eh

For completeness - the Gibbs free energy minus the electronic energy
G-E(el)                           ...      0.37415108 Eh    234.78 kcal/mol



--------------------------------
SUGGESTED CITATIONS FOR THIS RUN
--------------------------------

Below you find a list of papers that are relevant to this ORCA run
We neither can nor want to force you to cite these papers, but we appreciate if you do
You receive ORCA, which is the product of decades of hard work by many enthusiastic individuals, for free
The only thing we kindly ask in return is that you cite our papers,
We deeply appreciate it, if you show your appreciation for ORCA by not just citing the generic ORCA reference.

Please note that relegating all ORCA citations to the supporting information does *not* help us.
SI sections are not indexed - citations you put there will not count into any citation statistics
But we need these citations in order to attract the funding resources that allow us to do what we are doing

Therefore, if you are a happy ORCA user, please consider citing a few of the papers listed below in the main body of your paper

In addition to the list printed below, the program has created the file 3.bibtex that contains the list in bibtex format
You can import this file easily into all common literature databanks and citation aid programs


List of essential papers. We consider these as the minimum necessary citations

  1. Neese,F.
     Software update: the ORCA program system, version 5.0
     WIRES Comput. Molec. Sci., 2022 12(1)e1606
     doi.org/10.1002/wcms.1606

List of papers to cite with high priority. The work reported in these papers was absolutely
necessary for this run to complete.
Our perspective: the developers of density functionals and basis sets usually get cited in chemistry papers
Good! But without the algorithms to do something with them, the functionals or basis sets would not do anything.
Hence, in our opinion, the algorithm design and method developments papers are equally worthy of getting cited

  1. Neese,F.; Olbrich,G.
     Efficient use of the resolution of the identity approximation in time-dependent density functional calculations with hybrid density functionals
     Chem. Phys. Lett., 2002 362 170-178
     doi.org/10.1016/s0009-2614(02)01053-9
  2. Neese,F.
     An improvement of the resolution of the identity approximation for the formation of the Coulomb matrix
     J. Comp. Chem., 2003 24(14)1740-1747
     doi.org/10.1002/jcc.10318
  3. Neese,F.; Wennmohs,F.; Hansen,A.; Becker,U.
     Efficient, approximate and parallel Hartree-Fock and hybrid DFT calculations. A 'chain-of-spheres' algorithm for the Hartree-Fock exchange
     Chem. Phys., 2009 356(1-3)98-109
     doi.org/10.1016/j.chemphys.2008.10.036
  4. Petrenko,T.; Kossmann,S.; Neese,F.
     Efficient time-dependent density functional theory approximations for hybrid density functionals: Analytical gradients and parallelization
     J. Chem. Phys., 2011 134 054116
     doi.org/10.1063/1.3533441
  5. Bykov,D.; Petrenko,T.; Izsak,R.; Kossmann,S.; Becker,U.; Valeev,E.; Neese,F.
     Efficient implementation of the analytic second derivatives of Hartree-Fock and hybrid DFT energies: a detailed analysis of different approximations
     Molec. Phys., 2015 113 1961-1977
     doi.org/10.1080/00268976.2015.1025114
  6. Garcia-Rates,M.; Neese,F.
     Effect of the Solute Cavity on the Solvation Energy and its Derivatives within the Framework of the Gaussian Charge Scheme
     J. Comput. Chem., 2020 41 922-939
     doi.org/10.1002/jcc.26139
  7. Helmich-Paris,B.; de Souza,B.; Neese,F.; Izsák,R.
     An improved chain of spheres for exchange algorithm
     J. Chem. Phys., 2021 155 104109
     doi.org/doi: 10.1063/5.0058766.
  8. Neese,F.
     The SHARK Integral Generation and Digestion System
     J. Comp. Chem., 2022  1-16
     doi.org/10.1002/jcc.26942

List of suggested additional citations. These are papers that are important in the 'surrounding' of 
of this run, or papers that preceded the highly important papers. If you like your results we are grateful for a citation.

  1. Izsak,R.; Neese,F.
     An overlap fitted chain of spheres exchange method
     J. Chem. Phys., 2011 135 144105
     doi.org/10.1063/1.3646921
  2. Izsak,R.; Hansen,A.; Neese,F.
     The resolution of identity and chain of spheres approximations for the LPNO-CCSD singles Fock term
     Molec. Phys., 2012 110 2413-2417
     doi.org/10.1080/00268976.2012.687466
  3. Neese,F.
     The ORCA program system
     WIRES Comput. Molec. Sci., 2012 2(1)73-78
     doi.org/10.1002/wcms.81
  4. Izsak,R.; Neese,F.; Klopper,W.
     Robust fitting techniques in the chain of spheres approximation to the Fock exchange: The role of the complementary space
     J. Chem. Phys., 2013 139 
     doi.org/10.1063/1.4819264
  5. Neese,F.
     Software update: the ORCA program system, version 4.0
     WIRES Comput. Molec. Sci., 2018 8(1)1-6
     doi.org/10.1002/wcms.1327
  6. Neese,F.; Wennmohs,F.; Becker,U.; Riplinger,C.
     The ORCA quantum chemistry program package
     J. Chem. Phys., 2020 152 Art. No. L224108
     doi.org/10.1063/5.0004608

List of optional additional citations

  1. Neese,F.
     Approximate second-order SCF convergence for spin unrestricted wavefunctions
     Chem. Phys. Lett., 2000 325(1-3)93-98
     doi.org/10.1016/s0009-2614(00)00662-x

Timings for individual modules:

Sum of individual times          ...   320820.122 sec (=5347.002 min)
Startup calculation              ...      311.894 sec (=   5.198 min)   0.1 %
SCF iterations                   ...    10330.482 sec (= 172.175 min)   3.2 %
Property integrals               ...       24.497 sec (=   0.408 min)   0.0 %
Property calculations            ...        0.217 sec (=   0.004 min)   0.0 %
CIS module                       ...    23337.772 sec (= 388.963 min)   7.3 %
Geometry relaxation              ...        2.455 sec (=   0.041 min)   0.0 %
Numerical frequency calculation  ...   286812.805 sec (=4780.213 min)  89.4 %
                             ****ORCA TERMINATED NORMALLY****
TOTAL RUN TIME: 3 days 16 hours 53 minutes 7 seconds 340 msec
