
                                 *****************
                                 * O   R   C   A *
                                 *****************

                                            #,                                       
                                            ###                                      
                                            ####                                     
                                            #####                                    
                                            ######                                   
                                           ########,                                 
                                     ,,################,,,,,                         
                               ,,#################################,,                 
                          ,,##########################################,,             
                       ,#########################################, ''#####,          
                    ,#############################################,,   '####,        
                  ,##################################################,,,,####,       
                ,###########''''           ''''###############################       
              ,#####''   ,,,,##########,,,,          '''####'''          '####       
            ,##' ,,,,###########################,,,                        '##       
           ' ,,###''''                  '''############,,,                           
         ,,##''                                '''############,,,,        ,,,,,,###''
      ,#''                                            '''#######################'''  
     '                                                          ''''####''''         
             ,#######,   #######,   ,#######,      ##                                
            ,#'     '#,  ##    ##  ,#'     '#,    #''#        ,####,   ,####,        
            ##       ##  ##   ,#'  ##            #'  '#       #'       #'  '#        
            ##       ##  #######   ##           ,######,      #####,   #    #        
            '#,     ,#'  ##    ##  '#,     ,#' ,#      #,     #,   #   #,  ,#        
             '#######'   ##     ##  '#######'  #'      '#     '####' # '####'        



                #########################################################
                #                        -***-                          #
                #          Department of theory and spectroscopy        #
                #                                                       #
                #                      Frank Neese                      #
                #                                                       #
                #     Directorship, Architecture, Infrastructure        #
                #                    SHARK, DRIVERS                     #
                #        Core code/Algorithms in most modules           #
                #                                                       #
                #        Max Planck Institute fuer Kohlenforschung      #
                #                Kaiser Wilhelm Platz 1                 #
                #                 D-45470 Muelheim/Ruhr                 #
                #                      Germany                          #
                #                                                       #
                #                  All rights reserved                  #
                #                        -***-                          #
                #########################################################


                         Program Version 6.0.1  -  RELEASE   -


 With contributions from (in alphabetic order):
[Max-Planck-Institut fuer Kohlenforschung]                               
  Daniel Aravena         : Magnetic Suceptibility                        
  Michael Atanasov       : Ab Initio Ligand Field Theory (pilot matlab implementation)
  Alexander A. Auer      : GIAO ZORA, VPT2 properties, NMR spectrum      
  Ute Becker             : All parallelization in ORCA, NUMFREQ, NUMCALC 
  Giovanni Bistoni       : ED, misc. LED, open-shell LED, HFLD           
  Martin Brehm           : Molecular dynamics                            
  Dmytro Bykov           : pre 5.0 version of the SCF Hessian            
  Marcos Casanova-Páez   : Triplet and SCS-CIS(D). UHF-(DLPNO)-IP/EA/STEOM-CCSD. UHF-CVS-IP/STEOM-CCSD   
  Vijay G. Chilkuri      : MRCI spin determinant printing, contributions to CSF-ICE 
  Pauline Colinet        : FMM embedding                                 
  Dipayan Datta          : RHF DLPNO-CCSD density                        
  Achintya Kumar Dutta   : EOM-CC, STEOM-CC                              
  Nicolas Foglia         : Exact transition moments, OPA infrastructure, MCD improvements    
  Dmitry Ganyushin       : Spin-Orbit,Spin-Spin,Magnetic field MRCI      
  Miquel Garcia-Rates    : C-PCM and meta-GGA Hessian, CCSD/C-PCM, Gaussian charge scheme 
  Tiago L. C. Gouveia    : GS-ROHF, GS-ROCIS                             
  Yang Guo               : DLPNO-NEVPT2, F12-NEVPT2, CIM, IAO-localization        
  Andreas Hansen         : Spin unrestricted coupled pair/coupled cluster methods 
  Ingolf Harden          : AUTO-CI MPn and infrastructure                
  Benjamin Helmich-Paris : MC-RPA, TRAH-(SCF,CASSCF), AVAS, COSX integrals, SCF dyn. polar. 
  Lee Huntington         : MR-EOM, pCC                                   
  Robert Izsak           : Overlap fitted RIJCOSX, COSX-SCS-MP3, EOM     
  Riya Kayal             : Wick's Theorem for AUTO-CI, AUTO-CI UHF-CCSDT 
  Emily Kempfer          : AUTO-CI, RHF CISDT and CCSDT                  
  Christian Kollmar      : KDIIS, OOCD, Brueckner-CCSD(T), CCSD density, CASPT2, CASPT2-K, improved NEVPT2 
  Axel Koslowski         : Symmetry handling                             
  Simone Kossmann        : meta-GGA functionals, TD-DFT gradient, OOMP2, (MP2 Hessian; deprecated post 5.0) 
  Lucas Lang             : DCDCAS                                        
  Marvin Lechner         : AUTO-CI (C++ implementation), FIC-MRCC        
  Spencer Leger          : CASSCF response                               
  Dagmar Lenk            : GEPOL surface, SMD, ORCA-2-JSON               
  Dimitrios Liakos       : Extrapolation schemes; Compound Job, initial MDCI parallelization 
  Dimitrios Manganas     : Further ROCIS development; embedding schemes. LFT, Crystal Embedding 
  Dimitrios Pantazis     : SARC Basis sets                               
  Anastasios Papadopoulos: AUTO-CI, single reference methods and gradients 
  Taras Petrenko         : pre 6.0 DFT Hessian and TD-DFT gradient, (ASA, deprecated), ECA, 1-Electron XAS/XES, NRVS 
  Peter Pinski           : DLPNO-MP2, DLPNO-MP2 Gradient                 
  Christoph Reimann      : Effective Core Potentials                     
  Marius Retegan         : Local ZFS, SOC                                
  Christoph Riplinger    : Optimizer, TS searches, QM/MM, DLPNO-CCSD(T), (RO)-DLPNO pert. Triples 
  Michael Roemelt        : Original ROCIS implementation                 
  Masaaki Saitow         : Open-shell DLPNO-CCSD energy and density      
  Barbara Sandhoefer     : DKH picture change effects                    
  Kantharuban Sivalingam : CASSCF convergence/infrastructure, NEVPT2 and variants, FIC-MRCI 
  Bernardo de Souza      : ESD, SOC TD-DFT                               
  Georgi L. Stoychev     : AutoAux, RI-MP2 NMR, DLPNO-MP2 response, X2C  
  Van Anh Tran           : RI-MP2 g-tensors                              
  Willem Van den Heuvel  : Paramagnetic NMR                              
  Zikuan Wang            : NOTCH, Electric field optimization            
  Frank Wennmohs         : Technical directorship and infrastructure     
  Hang Xu                : AUTO-CI-Response properties                   
                                                                         
[FACCTs GmbH]                                                            
  Markus Bursch, Miquel Garcia-Rates, Christoph Riplinger, Bernardo de Souza, Georgi L. Stoychev 
                                                                 
  APM, Basis sets (HGBS, AHGBS, def-TZVP (Ac-Lr), def2-XVPD (La-Lu)), CI-OPT, improved COSX, DLPNO-Multilevel,           
  DOCKER, DRACO, updates on ESD, GOAT, IRC, LR-CPCM, MBIS, meta-GGA TD-DFT gradient, ML-optimized integration grids, 
  MM, NACMEs, nearIR, NEB, NEB-TS, NL-DFT gradient (VV10), 2- and 3-layer-ONIOM, interface openCOSMO-RS, QMMM,   
  Crystal-QMMM, SF, symmetry and pop. for TD-DFT, r2SCAN hybrids, SOLVATOR                                   
                                                                         
[Other institutions]                                                     
  V. Asgeirsson          : NEB                                           
  Christoph Bannwarth    : sTDA-DFT, sTD-DFT, PBEh-3c, B97-3c, D3        
  Sebastian Ehlert       : rSCAN, r2SCAN, r2SCAN-3c, D4, dhf basis sets  
  Marvin Friede          : D4 for Fr, Ra, Ac-Lr                          
  Lars Goerigk           : TD-DFT with DH, B97 family of functionals     
  Stefan Grimme          : VdW corrections, initial TS optimization, DFT functionals, gCP, sTDA/sTD-DF 
  Waldemar Hujo          : DFT-NL                                        
  H. Jonsson             : NEB                                           
  Holger Kruse           : gCP                                           
  Marcel Mueller         : wB97X-3c, vDZP basis set                      
  Hagen Neugebauer       : wr2SCAN                                       
  Tobias Risthaus        : range-separated hybrid DFT                    
  Lukas Wittmann         : regularized MP2, r2SCAN double-hybrids, wr2SCAN        
                                                                         
We gratefully acknowledge several colleagues who have allowed us to      
interface, adapt or use parts of their codes:                            
  Ed Valeev, F. Pavosevic, A. Kumar             : LibInt (2-el integral package), F12 methods 
  Garnet Chan, S. Sharma, J. Yang, R. Olivares  : DMRG                   
  Ulf Ekstrom                                   : XCFun DFT Library      
  Mihaly Kallay                                 : mrcc  (arbitrary order and MRCC methods)
  Frank Weinhold                                : gennbo (NPA and NBO analysis)           
  Simon Mueller                                 : openCOSMO-RS                            
  Christopher J. Cramer and Donald G. Truhlar   : smd solvation model                     
  S Lehtola, MJT Oliveira, MAL Marques          : LibXC Library                           
  Liviu Ungur et al                             : ANISO software                          


 Your calculation uses the libint2 library for the computation of 2-el integrals
 For citations please refer to: http://libint.valeyev.net

 Your ORCA version has been built with support for libXC version: 6.2.2
 For citations please refer to: https://libxc.gitlab.io

 This ORCA versions uses:
   CBLAS   interface :  Fast vector & matrix operations
   LAPACKE interface :  Fast linear algebra routines
   SCALAPACK package :  Parallel linear algebra routines
   Shared memory     :  Shared parallel matrices
   BLAS/LAPACK       :  OpenBLAS 0.3.27  USE64BITINT DYNAMIC_ARCH NO_AFFINITY Cooperlake SINGLE_THREADED
        Core in use  :  Cooperlake
   Copyright (c) 2011-2014, The OpenBLAS Project


Warning: RI is on but no J-basis has been assigned. Assigning Def2/J (nothing to worry about!)
================================================================================

----- Orbital basis set information -----
Your calculation utilizes the basis: 6-311G*
   H, Li - Ne  : R. Krishnan, J. S. Binkley, R. Seeger and J. A. Pople, J. Chem. Phys. 72, 650 (1980).
   Na - Ar     : A. D. McLean and G. S. Chandler J. Chem. Phys. 72, 5639, (1980).
   K  - Ca     : J.-P. Blaudeau, M. P. McGrath, L. A. Curtiss and L. Radom, J. Chem. Phys. 107, 5016 (1997).
   Ga - Kr     : L. A. Curtiss, M. P. McGrath, J.-P. Blandeau, N. E. Davis, R. C. Binning and L. Radom, J. Chem. Phys. 103, 6104 (1995).
   Pol./Diff.
   H, Li - Cl  : T. Clark, J. Chandrasekhar and P. v. R. Schleyer, J. Comp. Chem. 4, 294 (1983).
   H - Ne      : M. J. Frisch, J. A. Pople and J. S. Binkley, J. Chem. Phys. 80, 3265 (1984).

----- AuxJ basis set information -----
Your calculation utilizes the auxiliary basis: def2/J
   F. Weigend, Phys. Chem. Chem. Phys. 8, 1057 (2006).

================================================================================
                                        WARNINGS
                       Please study these warnings very carefully!
================================================================================


WARNING: Geometry Optimization
  ===> : Switching off AutoStart
         For restart on a previous wavefunction, please use MOREAD

================================================================================
                                       INPUT FILE
================================================================================
NAME = hbq-dcp-gs.inp
|  1> ! B3LYP/G OPT FREQ 6-311G* CPCM(Water)
|  2> 
|  3> * xyz 1 1 
|  4>   C          -3.40756108622994     -0.90361865722193      1.60327904968085
|  5>   C          -3.19821225943522     -1.83450547925237      2.63130763285195
|  6>   C          -1.98466226510484     -1.90503278029824      3.28154346729655
|  7>   C          -2.42333845061049      0.01457824338066      1.29005827237493
|  8>   C          -1.19936757155888      0.05520283726985      2.02076560078017
|  9>   O          -2.47663662531651      0.82991080481411      0.18650462025184
| 10>   C          -0.95351874434225     -1.00431734859382      2.95335943293040
| 11>   C           0.36637010906612     -1.21435297604073      3.47117602782602
| 12>   C           1.41631697273791     -0.48809677896098      3.01715820446006
| 13>   C          -0.13026476082509      0.99254882724486      1.79143553982929
| 14>   C           1.19791804525833      0.63182218427641      2.15219240336710
| 15>   N          -0.30601328269524      2.25591449992496      1.23101647415417
| 16>   C           0.75115215739213      2.94891719720929      0.73652982169074
| 17>   C           2.04961912292405      2.50069068858077      0.86943455955568
| 18>   C           2.27437692682911      1.38777328532069      1.66031277110544
| 19>   C          -3.66975834110415      1.08660527191777     -0.49758130351167
| 20>   O          -4.73064517398802      1.20939228896719      0.08169825894630
| 21>   N          -3.45159397694516      1.21603097188079     -1.81718059439730
| 22>   C          -2.17396222787499      0.99057621070863     -2.49098727148943
| 23>   C          -4.57120212316844      1.56649506535290     -2.68770211853751
| 24>   H          -4.80516752955704      0.73008334512469     -3.35228625741680
| 25>   H          -4.30464507514702      2.43298960410646     -3.29723387928611
| 26>   H          -5.44337410226905      1.80228307161643     -2.08594462349942
| 27>   H          -1.84879795855512      1.91128116947017     -2.98232231904376
| 28>   H          -2.29721676931890      0.21524813756840     -3.25179406677888
| 29>   H          -1.41593267920672      0.67708435076357     -1.78285461473655
| 30>   H          -1.79252803788510     -2.67883785806258      4.01614018529830
| 31>   H          -4.33077234934992     -0.92052607226308      1.04352762220476
| 32>   H          -3.98798120102476     -2.53767540775410      2.87135481733683
| 33>   H           0.51776121813636     -2.02694553656123      4.17303729350299
| 34>   H           2.43349440938564     -0.71351125195105      3.31632344195623
| 35>   H           0.52732087734844      3.90236585548503      0.28061197141739
| 36>   H           2.85849823375027      3.07466885055600      0.43818600731216
| 37>   H           3.28586355945065      1.08212811954001      1.90452655630436
| 38>   P          -1.73381202320118      3.30318539096715      1.61519328834131
| 39>   O          -2.70309582852334      2.61901587635980      2.48690818148456
| 40>   O          -2.08687907563674      3.74954791492584      0.14732659267625
| 41>   O          -1.03999030705843      4.58758159753770      2.23263136542275
| 42>   C          -2.92397434602976      4.93329717080000     -0.15492611910150
| 43>   C          -0.99789854565239      4.90254512424577      3.67386380096243
| 44>   C          -2.73069015476476      5.26467184978821     -1.61416134100989
| 45>   H          -2.60365530348096      5.74629282159323      0.49566130085462
| 46>   H          -3.95362160304776      4.66168812960867      0.07630015793870
| 47>   H          -1.69056145175893      5.52200673086413     -1.82396729864095
| 48>   H          -3.35578044350586      6.12486278445281     -1.86767190132723
| 49>   H          -3.02589557867050      4.42792450822628     -2.24958228924615
| 50>   C           0.31138660817691      4.45965775185088      4.28775150254919
| 51>   H          -1.85911509567056      4.43589900581947      4.15010158515223
| 52>   H          -1.11716961926804      5.98391515523402      3.70318018215518
| 53>   H           0.33813688904558      4.78171371103359      5.33237462925645
| 54>   H           1.16022068903677      4.91113923452996      3.77020919070068
| 55>   H           0.42054612193655      3.37294452409862      4.26606418828361
| 56> *
| 57> 
| 58>                          ****END OF INPUT****
================================================================================

                       *****************************
                       * Geometry Optimization Run *
                       *****************************

Geometry optimization settings:
Update method            Update   .... BFGS
Choice of coordinates    CoordSys .... (2022) Redundant Internals
Initial Hessian          InHess   .... Almloef's Model
Max. no of cycles        MaxIter  .... 156

Convergence Tolerances:
Energy Change            TolE     ....  5.0000e-06 Eh
Max. Gradient            TolMAXG  ....  3.0000e-04 Eh/bohr
RMS Gradient             TolRMSG  ....  1.0000e-04 Eh/bohr
Max. Displacement        TolMAXD  ....  4.0000e-03 bohr
RMS Displacement         TolRMSD  ....  2.0000e-03 bohr
Strict Convergence                .... False

------------------------------------------------------------------------------
                        ORCA OPTIMIZATION COORDINATE SETUP
------------------------------------------------------------------------------

The optimization will be done in redundant internal coordinates (2022)
Making redundant internal coordinates   ...  (2022 redundants) done
Evaluating the initial hessian          ...  (Almloef) done
Evaluating the coordinates              ...  done
Calculating the B-matrix                .... done
Calculating the G-matrix                .... done
Diagonalizing the G-matrix              .... done
Small eigenvalue found = 1.747e-03
Small eigenvalue found = 5.032e-03
Small eigenvalue found = 5.541e-03
Small eigenvalue found = 7.228e-03
Small eigenvalue found = 9.961e-03
Small eigenvalue found = 1.236e-02
Small eigenvalue found = 1.796e-02
Small eigenvalue found = 2.001e-02
Small eigenvalue found = 2.505e-02
The first mode is                       ....  109
The number of degrees of freedom        ....  150

    -----------------------------------------------------------------
                    Redundant Internal Coordinates


    -----------------------------------------------------------------
         Definition                    Initial Value    Approx d2E/dq
    -----------------------------------------------------------------
      1. B(C   1,C   0)                  1.4026         0.596587   
      2. B(C   2,C   1)                  1.3786         0.651565   
      3. B(C   3,C   0)                  1.3820         0.643463   
      4. B(C   4,C   3)                  1.4261         0.547248   
      5. B(O   5,C   3)                  1.3731         0.595413   
      6. B(C   6,C   4)                  1.4327         0.534002   
      7. B(C   6,C   2)                  1.4079         0.584981   
      8. B(C   7,C   6)                  1.4333         0.532908   
      9. B(C   8,C   7)                  1.3550         0.710578   
     10. B(C   9,C   4)                  1.4402         0.519565   
     11. B(C  10,C   9)                  1.4228         0.553886   
     12. B(C  10,C   8)                  1.4318         0.535836   
     13. B(N  11,C   9)                  1.3932         0.553025   
     14. B(C  12,N  11)                  1.3573         0.630935   
     15. B(C  13,C  12)                  1.3801         0.648015   
     16. B(C  14,C  13)                  1.3837         0.639456   
     17. B(C  14,C  10)                  1.4043         0.592734   
     18. B(C  15,O   5)                  1.3991         0.541253   
     19. B(O  16,C  15)                  1.2150         1.064496   
     20. B(N  17,C  15)                  1.3438         0.663208   
     21. B(C  18,N  17)                  1.4619         0.429679   
     22. B(C  19,N  17)                  1.4609         0.431320   
     23. B(H  20,C  19)                  1.0936         0.355348   
     24. B(H  21,C  19)                  1.0924         0.356905   
     25. B(H  22,C  19)                  1.0855         0.366052   
     26. B(H  23,C  18)                  1.0931         0.356039   
     27. B(H  24,C  18)                  1.0932         0.355852   
     28. B(H  25,C  18)                  1.0837         0.368574   
     29. B(H  26,C   2)                  1.0841         0.367959   
     30. B(H  27,C   0)                  1.0798         0.373876   
     31. B(H  28,C   1)                  1.0843         0.367658   
     32. B(H  29,C   7)                  1.0844         0.367640   
     33. B(H  30,C   8)                  1.0840         0.368184   
     34. B(H  31,C  12)                  1.0803         0.373177   
     35. B(H  32,C  13)                  1.0815         0.371478   
     36. B(H  33,C  14)                  1.0845         0.367435   
     37. B(P  34,N  11)                  1.8119         0.399261   
     38. B(O  35,P  34)                  1.4722         1.390475   
     39. B(O  36,P  34)                  1.5743         0.955599   
     40. B(O  37,P  34)                  1.5850         0.918810   
     41. B(C  38,O  36)                  1.4810         0.400588   
     42. B(C  39,O  37)                  1.4758         0.408237   
     43. B(C  40,C  38)                  1.5088         0.403804   
     44. B(H  41,C  38)                  1.0894         0.360872   
     45. B(H  42,C  38)                  1.0897         0.360519   
     46. B(H  43,C  40)                  1.0918         0.357678   
     47. B(H  44,C  40)                  1.0931         0.355983   
     48. B(H  45,H  21)                  2.5909         0.000278   
     49. B(H  45,C  40)                  1.0914         0.358314   
     50. B(C  46,C  39)                  1.5124         0.398584   
     51. B(H  47,C  39)                  1.0892         0.361222   
     52. B(H  48,C  39)                  1.0883         0.362326   
     53. B(H  49,C  46)                  1.0935         0.355541   
     54. B(H  50,C  46)                  1.0919         0.357620   
     55. B(H  51,C  46)                  1.0924         0.356943   
     56. A(C   1,C   0,C   3)          120.0519         0.433961   
     57. A(C   1,C   0,H  27)          119.8140         0.352852   
     58. A(C   3,C   0,H  27)          120.1208         0.357408   
     59. A(C   0,C   1,C   2)          120.7345         0.434939   
     60. A(C   0,C   1,H  28)          118.9429         0.351852   
     61. A(C   2,C   1,H  28)          120.2355         0.357150   
     62. A(C   1,C   2,H  26)          120.8056         0.357199   
     63. A(C   6,C   2,H  26)          118.9978         0.350735   
     64. A(C   1,C   2,C   6)          120.1349         0.433404   
     65. A(C   4,C   3,O   5)          115.3535         0.418661   
     66. A(C   0,C   3,O   5)          123.2999         0.430970   
     67. A(C   0,C   3,C   4)          120.9337         0.427286   
     68. A(C   6,C   4,C   9)          117.2304         0.409518   
     69. A(C   3,C   4,C   9)          125.0348         0.411301   
     70. A(C   3,C   4,C   6)          117.3698         0.413306   
     71. A(C   3,O   5,C  15)          122.3449         0.415134   
     72. A(C   4,C   6,C   7)          120.1020         0.411363   
     73. A(C   2,C   6,C   7)          119.7669         0.418085   
     74. A(C   2,C   6,C   4)          119.9438         0.418238   
     75. A(C   6,C   7,H  29)          118.1784         0.345219   
     76. A(C   6,C   7,C   8)          120.9285         0.432896   
     77. A(C   8,C   7,H  29)          120.6874         0.362461   
     78. A(C  10,C   8,H  30)          118.1981         0.345623   
     79. A(C   7,C   8,H  30)          121.5473         0.362552   
     80. A(C   7,C   8,C  10)          120.2292         0.433322   
     81. A(C   4,C   9,C  10)          119.1816         0.412181   
     82. A(C  10,C   9,N  11)          116.7215         0.414082   
     83. A(C   4,C   9,N  11)          124.0968         0.409409   
     84. A(C   9,C  10,C  14)          119.3581         0.421964   
     85. A(C   8,C  10,C  14)          121.0450         0.419477   
     86. A(C   8,C  10,C   9)          119.5954         0.414445   
     87. A(C   9,N  11,P  34)          122.5640         0.414297   
     88. A(C   9,N  11,C  12)          120.7483         0.421053   
     89. A(C  12,N  11,P  34)          113.3213         0.424148   
     90. A(N  11,C  12,H  31)          116.2947         0.353905   
     91. A(N  11,C  12,C  13)          122.1335         0.436038   
     92. A(C  13,C  12,H  31)          121.4826         0.357723   
     93. A(C  12,C  13,H  32)          119.5322         0.357445   
     94. A(C  12,C  13,C  14)          117.9761         0.439981   
     95. A(C  14,C  13,H  32)          122.2273         0.356639   
     96. A(C  10,C  14,H  33)          118.9687         0.351431   
     97. A(C  10,C  14,C  13)          120.5737         0.432968   
     98. A(C  13,C  14,H  33)          120.4564         0.355977   
     99. A(O  16,C  15,N  17)          126.8877         0.478476   
    100. A(O   5,C  15,N  17)          111.0623         0.423192   
    101. A(O   5,C  15,O  16)          122.0097         0.460969   
    102. A(C  18,N  17,C  19)          115.6031         0.376748   
    103. A(C  15,N  17,C  19)          118.9375         0.406452   
    104. A(C  15,N  17,C  18)          125.4263         0.406179   
    105. A(N  17,C  18,H  25)          110.7786         0.331163   
    106. A(H  23,C  18,H  24)          108.5474         0.289782   
    107. A(H  23,C  18,H  25)          109.2268         0.291385   
    108. A(N  17,C  18,H  24)          109.3659         0.329246   
    109. A(N  17,C  18,H  23)          109.7095         0.329274   
    110. A(H  24,C  18,H  25)          109.1752         0.291361   
    111. A(H  21,C  19,H  22)          109.4546         0.291181   
    112. A(H  20,C  19,H  22)          109.3359         0.290981   
    113. A(N  17,C  19,H  22)          109.7271         0.330996   
    114. A(H  20,C  19,H  21)          108.6489         0.289828   
    115. A(N  17,C  19,H  21)          109.6191         0.329614   
    116. A(N  17,C  19,H  20)          110.0354         0.329376   
    117. A(N  11,P  34,O  36)           98.2162         0.489033   
    118. A(N  11,P  34,O  35)          112.0705         0.524475   
    119. A(O  36,P  34,O  37)          103.3925         0.572084   
    120. A(O  35,P  34,O  37)          115.7291         0.614885   
    121. A(N  11,P  34,O  37)          101.8894         0.485494   
    122. A(O  35,P  34,O  36)          122.4231         0.619579   
    123. A(P  34,O  36,C  38)          122.9335         0.457442   
    124. A(P  34,O  37,C  39)          124.4599         0.455749   
    125. A(H  41,C  38,H  42)          109.7014         0.290990   
    126. A(C  40,C  38,H  42)          112.3963         0.328563   
    127. A(O  36,C  38,H  42)          106.9507         0.326162   
    128. A(C  40,C  38,H  41)          112.0860         0.328616   
    129. A(O  36,C  38,H  41)          107.9637         0.326215   
    130. A(O  36,C  38,C  40)          107.4888         0.370339   
    131. A(C  46,C  39,H  48)          112.0191         0.328129   
    132. A(O  37,C  39,H  48)          103.6051         0.327449   
    133. A(C  46,C  39,H  47)          112.4321         0.327964   
    134. A(O  37,C  39,H  47)          108.2408         0.327284   
    135. A(O  37,C  39,C  46)          111.0135         0.370715   
    136. A(H  47,C  39,H  48)          109.1036         0.291263   
    137. A(H  44,C  40,H  45)          108.2776         0.290088   
    138. A(H  43,C  40,H  45)          109.0570         0.290305   
    139. A(C  38,C  40,H  45)          111.1038         0.328230   
    140. A(H  43,C  40,H  44)          108.3441         0.290008   
    141. A(C  38,C  40,H  44)          108.8966         0.327877   
    142. A(C  38,C  40,H  43)          111.0783         0.328134   
    143. A(H  50,C  46,H  51)          108.9198         0.290123   
    144. A(H  49,C  46,H  51)          108.0301         0.289857   
    145. A(C  39,C  46,H  51)          111.7015         0.327320   
    146. A(H  49,C  46,H  50)          108.1808         0.289944   
    147. A(C  39,C  46,H  50)          111.0713         0.327422   
    148. A(C  39,C  46,H  49)          108.8269         0.327108   
    149. D(C   2,C   1,C   0,C   3)     -4.2380         0.024521   
    150. D(H  28,C   1,C   0,H  27)     -2.1798         0.024521   
    151. D(C   2,C   1,C   0,H  27)    174.4353         0.024521   
    152. D(H  28,C   1,C   0,C   3)    179.1469         0.024521   
    153. D(C   6,C   2,C   1,H  28)    179.0016         0.029569   
    154. D(H  26,C   2,C   1,C   0)   -174.6836         0.029569   
    155. D(C   6,C   2,C   1,C   0)      2.4302         0.029569   
    156. D(H  26,C   2,C   1,H  28)      1.8878         0.029569   
    157. D(C   4,C   3,C   0,H  27)    179.7886         0.028788   
    158. D(O   5,C   3,C   0,C   1)    170.7350         0.028788   
    159. D(O   5,C   3,C   0,H  27)     -7.9343         0.028788   
    160. D(C   4,C   3,C   0,C   1)     -1.5421         0.028788   
    161. D(C   6,C   4,C   3,O   5)   -164.1576         0.020480   
    162. D(C   9,C   4,C   3,C   0)   -178.4475         0.020480   
    163. D(C   6,C   4,C   3,C   0)      8.7027         0.020480   
    164. D(C   9,C   4,C   3,O   5)      8.6922         0.020480   
    165. D(C  15,O   5,C   3,C   4)   -168.5034         0.025867   
    166. D(C  15,O   5,C   3,C   0)     18.8249         0.025867   
    167. D(C   7,C   6,C   4,C   9)     -8.8105         0.019472   
    168. D(C   2,C   6,C   4,C   9)    176.1734         0.019472   
    169. D(C   2,C   6,C   4,C   3)    -10.4083         0.019472   
    170. D(C   7,C   6,C   4,C   3)    164.6078         0.019472   
    171. D(C   7,C   6,C   2,H  26)      7.1832         0.023530   
    172. D(C   4,C   6,C   2,H  26)   -177.7839         0.023530   
    173. D(C   4,C   6,C   2,C   1)      5.0504         0.023530   
    174. D(C   7,C   6,C   2,C   1)   -169.9825         0.023530   
    175. D(H  29,C   7,C   6,C   4)   -179.8340         0.019390   
    176. D(H  29,C   7,C   6,C   2)     -4.8090         0.019390   
    177. D(C   8,C   7,C   6,C   4)     -5.0104         0.019390   
    178. D(C   8,C   7,C   6,C   2)    170.0146         0.019390   
    179. D(C  10,C   8,C   7,C   6)      8.9721         0.035653   
    180. D(H  30,C   8,C   7,H  29)      1.8013         0.035653   
    181. D(H  30,C   8,C   7,C   6)   -172.8924         0.035653   
    182. D(C  10,C   8,C   7,H  29)   -176.3342         0.035653   
    183. D(N  11,C   9,C   4,C   6)   -161.3239         0.018409   
    184. D(N  11,C   9,C   4,C   3)     25.8172         0.018409   
    185. D(C  10,C   9,C   4,C   6)     18.5891         0.018409   
    186. D(C  10,C   9,C   4,C   3)   -154.2698         0.018409   
    187. D(C  14,C  10,C   9,N  11)    -14.7683         0.020998   
    188. D(C  14,C  10,C   9,C   4)    165.3124         0.020998   
    189. D(C   8,C  10,C   9,N  11)    164.7833         0.020998   
    190. D(C   8,C  10,C   9,C   4)    -15.1360         0.020998   
    191. D(C  14,C  10,C   8,H  30)      2.4787         0.019610   
    192. D(C  14,C  10,C   8,C   7)   -179.3242         0.019610   
    193. D(C   9,C  10,C   8,H  30)   -177.0652         0.019610   
    194. D(C   9,C  10,C   8,C   7)      1.1319         0.019610   
    195. D(P  34,N  11,C   9,C  10)   -141.1634         0.024391   
    196. D(P  34,N  11,C   9,C   4)     38.7516         0.024391   
    197. D(C  12,N  11,C   9,C  10)     16.7316         0.024391   
    198. D(C  12,N  11,C   9,C   4)   -163.3534         0.024391   
    199. D(H  31,C  12,N  11,P  34)    -22.7386         0.032324   
    200. D(H  31,C  12,N  11,C   9)    177.4653         0.032324   
    201. D(C  13,C  12,N  11,P  34)    153.8707         0.032324   
    202. D(C  13,C  12,N  11,C   9)     -5.9253         0.032324   
    203. D(H  32,C  13,C  12,H  31)     -5.0403         0.029225   
    204. D(H  32,C  13,C  12,N  11)    178.5244         0.029225   
    205. D(C  14,C  13,C  12,H  31)    169.1862         0.029225   
    206. D(C  14,C  13,C  12,N  11)     -7.2491         0.029225   
    207. D(C  10,C  14,C  13,C  12)      8.8824         0.028407   
    208. D(H  33,C  14,C  10,C   9)   -177.4082         0.024189   
    209. D(H  33,C  14,C  10,C   8)      3.0468         0.024189   
    210. D(C  13,C  14,C  10,C   9)      2.1962         0.024189   
    211. D(C  13,C  14,C  10,C   8)   -177.3488         0.024189   
    212. D(H  33,C  14,C  13,H  32)      2.5421         0.028407   
    213. D(H  33,C  14,C  13,C  12)   -171.5191         0.028407   
    214. D(C  10,C  14,C  13,H  32)   -177.0564         0.028407   
    215. D(N  17,C  15,O   5,C   3)   -145.2584         0.021158   
    216. D(O  16,C  15,O   5,C   3)     36.9011         0.021158   
    217. D(C  19,N  17,C  15,O  16)      1.3092         0.036024   
    218. D(C  19,N  17,C  15,O   5)   -176.4012         0.036024   
    219. D(C  18,N  17,C  15,O  16)   -176.5024         0.036024   
    220. D(C  18,N  17,C  15,O   5)      5.7872         0.036024   
    221. D(H  25,C  18,N  17,C  15)      1.3743         0.015741   
    222. D(H  24,C  18,N  17,C  19)    -56.1214         0.015741   
    223. D(H  24,C  18,N  17,C  15)    121.7550         0.015741   
    224. D(H  23,C  18,N  17,C  19)     62.8298         0.015741   
    225. D(H  23,C  18,N  17,C  15)   -119.2938         0.015741   
    226. D(H  22,C  19,N  17,C  15)      7.2408         0.015861   
    227. D(H  21,C  19,N  17,C  18)    -54.5078         0.015861   
    228. D(H  21,C  19,N  17,C  15)    127.4695         0.015861   
    229. D(H  20,C  19,N  17,C  18)     64.9206         0.015861   
    230. D(H  20,C  19,N  17,C  15)   -113.1021         0.015861   
    231. D(O  37,P  34,N  11,C   9)    119.9720         0.003958   
    232. D(O  36,P  34,N  11,C  12)     66.2303         0.003958   
    233. D(O  36,P  34,N  11,C   9)   -134.3903         0.003958   
    234. D(O  35,P  34,N  11,C  12)   -163.7458         0.003958   
    235. D(O  35,P  34,N  11,C   9)     -4.3663         0.003958   
    236. D(C  38,O  36,P  34,O  37)    -56.8316         0.015698   
    237. D(C  38,O  36,P  34,O  35)     76.0043         0.015698   
    238. D(C  38,O  36,P  34,N  11)   -161.2119         0.015698   
    239. D(C  39,O  37,P  34,O  36)    154.7285         0.014546   
    240. D(C  39,O  37,P  34,O  35)     18.1306         0.014546   
    241. D(C  39,O  37,P  34,N  11)   -103.7198         0.014546   
    242. D(H  42,C  38,O  36,P  34)    -74.4583         0.012674   
    243. D(H  41,C  38,O  36,P  34)     43.5311         0.012674   
    244. D(C  40,C  38,O  36,P  34)    164.6342         0.012674   
    245. D(H  48,C  39,O  37,P  34)   -142.3588         0.013149   
    246. D(H  47,C  39,O  37,P  34)    -26.6178         0.013149   
    247. D(C  46,C  39,O  37,P  34)     97.2309         0.013149   
    248. D(H  44,C  40,C  38,H  42)     61.4267         0.012929   
    249. D(H  44,C  40,C  38,H  41)    -62.6784         0.012929   
    250. D(H  44,C  40,C  38,O  36)    178.8436         0.012929   
    251. D(H  43,C  40,C  38,H  42)   -179.3349         0.012929   
    252. D(H  43,C  40,C  38,H  41)     56.5600         0.012929   
    253. D(H  43,C  40,C  38,O  36)    -61.9181         0.012929   
    254. D(H  50,C  46,C  39,H  48)    -58.8351         0.012608   
    255. D(H  50,C  46,C  39,H  47)    177.8748         0.012608   
    256. D(H  50,C  46,C  39,O  37)     56.4525         0.012608   
    257. D(H  49,C  46,C  39,H  48)     60.1539         0.012608   
    258. D(H  49,C  46,C  39,H  47)    -63.1363         0.012608   
    259. D(H  49,C  46,C  39,O  37)    175.4415         0.012608   
    -----------------------------------------------------------------

Number of atoms                         .... 52
Number of degrees of freedom            .... 259


         *************************************************************
         *                GEOMETRY OPTIMIZATION CYCLE   1            *
         *************************************************************
---------------------------------
CARTESIAN COORDINATES (ANGSTROEM)
---------------------------------
  C     -3.407561   -0.903619    1.603279
  C     -3.198212   -1.834505    2.631308
  C     -1.984662   -1.905033    3.281543
  C     -2.423338    0.014578    1.290058
  C     -1.199368    0.055203    2.020766
  O     -2.476637    0.829911    0.186505
  C     -0.953519   -1.004317    2.953359
  C      0.366370   -1.214353    3.471176
  C      1.416317   -0.488097    3.017158
  C     -0.130265    0.992549    1.791436
  C      1.197918    0.631822    2.152192
  N     -0.306013    2.255914    1.231016
  C      0.751152    2.948917    0.736530
  C      2.049619    2.500691    0.869435
  C      2.274377    1.387773    1.660313
  C     -3.669758    1.086605   -0.497581
  O     -4.730645    1.209392    0.081698
  N     -3.451594    1.216031   -1.817181
  C     -2.173962    0.990576   -2.490987
  C     -4.571202    1.566495   -2.687702
  H     -4.805168    0.730083   -3.352286
  H     -4.304645    2.432990   -3.297234
  H     -5.443374    1.802283   -2.085945
  H     -1.848798    1.911281   -2.982322
  H     -2.297217    0.215248   -3.251794
  H     -1.415933    0.677084   -1.782855
  H     -1.792528   -2.678838    4.016140
  H     -4.330772   -0.920526    1.043528
  H     -3.987981   -2.537675    2.871355
  H      0.517761   -2.026946    4.173037
  H      2.433494   -0.713511    3.316323
  H      0.527321    3.902366    0.280612
  H      2.858498    3.074669    0.438186
  H      3.285864    1.082128    1.904527
  P     -1.733812    3.303185    1.615193
  O     -2.703096    2.619016    2.486908
  O     -2.086879    3.749548    0.147327
  O     -1.039990    4.587582    2.232631
  C     -2.923974    4.933297   -0.154926
  C     -0.997899    4.902545    3.673864
  C     -2.730690    5.264672   -1.614161
  H     -2.603655    5.746293    0.495661
  H     -3.953622    4.661688    0.076300
  H     -1.690561    5.522007   -1.823967
  H     -3.355780    6.124863   -1.867672
  H     -3.025896    4.427925   -2.249582
  C      0.311387    4.459658    4.287752
  H     -1.859115    4.435899    4.150102
  H     -1.117170    5.983915    3.703180
  H      0.338137    4.781714    5.332375
  H      1.160221    4.911139    3.770209
  H      0.420546    3.372945    4.266064

----------------------------
CARTESIAN COORDINATES (A.U.)
----------------------------
  NO LB      ZA    FRAG     MASS         X           Y           Z
   0 C     6.0000    0    12.011   -6.439357   -1.707592    3.029758
   1 C     6.0000    0    12.011   -6.043745   -3.466713    4.972451
   2 C     6.0000    0    12.011   -3.750468   -3.599990    6.201218
   3 C     6.0000    0    12.011   -4.579446    0.027549    2.437857
   4 C     6.0000    0    12.011   -2.266476    0.104318    3.818694
   5 O     8.0000    0    15.999   -4.680165    1.568304    0.352443
   6 C     6.0000    0    12.011   -1.801889   -1.897885    5.581041
   7 C     6.0000    0    12.011    0.692339   -2.294795    6.559572
   8 C     6.0000    0    12.011    2.676451   -0.922369    5.701603
   9 C     6.0000    0    12.011   -0.246165    1.875645    3.385323
  10 C     6.0000    0    12.011    2.263737    1.193971    4.067054
  11 N     7.0000    0    14.007   -0.578281    4.263061    2.326284
  12 C     6.0000    0    12.011    1.419472    5.572646    1.391840
  13 C     6.0000    0    12.011    3.873219    4.725621    1.642993
  14 C     6.0000    0    12.011    4.297950    2.622511    3.137536
  15 C     6.0000    0    12.011   -6.934838    2.053386   -0.940292
  16 O     8.0000    0    15.999   -8.939624    2.285420    0.154387
  17 N     7.0000    0    14.007   -6.522567    2.297966   -3.433974
  18 C     6.0000    0    12.011   -4.108193    1.871918   -4.707284
  19 C     6.0000    0    12.011   -8.638320    2.960247   -5.079021
  20 H     1.0000    0     1.008   -9.080451    1.379658   -6.334903
  21 H     1.0000    0     1.008   -8.134600    4.597684   -6.230869
  22 H     1.0000    0     1.008  -10.286486    3.405821   -3.941864
  23 H     1.0000    0     1.008   -3.493722    3.611798   -5.635772
  24 H     1.0000    0     1.008   -4.341111    0.406760   -6.145000
  25 H     1.0000    0     1.008   -2.675725    1.279504   -3.369107
  26 H     1.0000    0     1.008   -3.387387   -5.062270    7.589405
  27 H     1.0000    0     1.008   -8.183974   -1.739542    1.971981
  28 H     1.0000    0     1.008   -7.536192   -4.795512    5.426074
  29 H     1.0000    0     1.008    0.978427   -3.830372    7.885898
  30 H     1.0000    0     1.008    4.598638   -1.348341    6.266943
  31 H     1.0000    0     1.008    0.996492    7.374403    0.530280
  32 H     1.0000    0     1.008    5.401779    5.810282    0.828052
  33 H     1.0000    0     1.008    6.209382    2.044926    3.599034
  34 P    15.0000    0    30.974   -3.276430    6.242116    3.052273
  35 O     8.0000    0    15.999   -5.108111    4.949223    4.699575
  36 O     8.0000    0    15.999   -3.943630    7.085619    0.278407
  37 O     8.0000    0    15.999   -1.965297    8.669273    4.219062
  38 C     6.0000    0    12.011   -5.525511    9.322581   -0.292768
  39 C     6.0000    0    12.011   -1.885755    9.264468    6.942596
  40 C     6.0000    0    12.011   -5.160257    9.948788   -3.050323
  41 H     1.0000    0     1.008   -4.920195   10.858920    0.936664
  42 H     1.0000    0     1.008   -7.471262    8.809314    0.144186
  43 H     1.0000    0     1.008   -3.194698   10.435080   -3.446799
  44 H     1.0000    0     1.008   -6.341506   11.574313   -3.529388
  45 H     1.0000    0     1.008   -5.718114    8.367565   -4.251094
  46 C     6.0000    0    12.011    0.588435    8.427532    8.102676
  47 H     1.0000    0     1.008   -3.513218    8.382634    7.842555
  48 H     1.0000    0     1.008   -2.111145   11.307961    6.997996
  49 H     1.0000    0     1.008    0.638986    9.036129   10.076728
  50 H     1.0000    0     1.008    2.192499    9.280708    7.124663
  51 H     1.0000    0     1.008    0.794717    6.373941    8.061693

--------------------------------
INTERNAL COORDINATES (ANGSTROEM)
--------------------------------
 C      0   0   0     0.000000000000     0.00000000     0.00000000
 C      1   0   0     1.402576192058     0.00000000     0.00000000
 C      2   1   0     1.378580548727   120.73452636     0.00000000
 C      1   2   3     1.381986613567   120.05191783   355.76197763
 C      4   1   2     1.426074426592   120.93366016   358.45786017
 O      4   1   2     1.373112720892   123.29985360   170.73495900
 C      3   2   1     1.407924007088   120.13486381     2.43015917
 C      7   3   2     1.433302332412   119.76694188   190.01749680
 C      8   7   3     1.354979211746   120.92853086   170.01456987
 C      5   4   1     1.440205055434   125.03484155   181.55250107
 C     10   5   4     1.422792603267   119.18162459   205.73022114
 N     10   5   4     1.393215667088   124.09679979    25.81722740
 C     12  10   5     1.357338777028   120.74829055   196.64657697
 C     13  12  10     1.380067800132   122.13345539   354.07466742
 C     14  13  12     1.383686945230   117.97610566   352.75093072
 C      6   4   1     1.399072917763   122.34488954    18.82487496
 O     16   6   4     1.214957750386   122.00971581    36.90114513
 N     16   6   4     1.343759275356   111.06228577   214.74155684
 C     18  16   6     1.461912505474   125.42630610     5.78721317
 C     18  16   6     1.460874808426   118.93753835   183.59881606
 H     20  18  16     1.093616228287   110.03543079   246.89790408
 H     20  18  16     1.092425930167   109.61905501   127.46952261
 H     20  18  16     1.085537667638   109.72709164     7.24082158
 H     19  18  16     1.093087165822   109.70953009   240.70616729
 H     19  18  16     1.093230205741   109.36587133   121.75496684
 H     19  18  16     1.083668677441   110.77855549     1.37429410
 H      3   2   1     1.084122777983   120.80562487   185.31642532
 H      1   2   3     1.079780791456   119.81396150   174.43534255
 H      2   1   3     1.084345692216   118.94289035   183.38488538
 H      8   7   3     1.084359337847   118.17837026   355.19095688
 H      9   8   7     1.083956392843   121.54729951   187.10758802
 H     13  12  10     1.080289716739   116.29465338   177.46528527
 H     14  13  12     1.081532089292   119.53221469   178.52439971
 H     15  14  13     1.084511202440   120.45642602   188.48090670
 P     12  10   5     1.811898834696   122.56404095    38.75157052
 O     35  12  10     1.472238389292   112.07051823   355.63365493
 O     35  12  10     1.574334298220    98.21617150   225.60970350
 O     35  12  10     1.585021125498   101.88941864   119.97200525
 C     37  35  12     1.480995440329   122.93346021   198.78809329
 C     38  35  12     1.475847103458   124.45985135   256.28020816
 C     39  37  35     1.508819203657   107.48875146   164.63420448
 H     39  37  35     1.089417370998   107.96373824    43.53111730
 H     39  37  35     1.089683686367   106.95073269   285.54166673
 H     41  39  37     1.091836755057   111.07830002   298.08192769
 H     41  39  37     1.093130329535   108.89663270   178.84355858
 H     41  39  37     1.091353351290   111.10383029    59.67172436
 C     40  38  35     1.512360720471   111.01346354    97.23088102
 H     40  38  35     1.089153328488   108.24083340   333.38218336
 H     40  38  35     1.088322646611   103.60509257   217.64116017
 H     47  40  38     1.093468378703   108.82685631   175.44147448
 H     47  40  38     1.091881344554   111.07129836    56.45250645
 H     47  40  38     1.092397262179   111.70152217   294.62764325

---------------------------
INTERNAL COORDINATES (A.U.)
---------------------------
 C      0   0   0     0.000000000000     0.00000000     0.00000000
 C      1   0   0     2.650484884947     0.00000000     0.00000000
 C      2   1   0     2.605139690645   120.73452636     0.00000000
 C      1   2   3     2.611576220387   120.05191783   355.76197763
 C      4   1   2     2.694890112848   120.93366016   358.45786017
 O      4   1   2     2.594806993489   123.29985360   170.73495900
 C      3   2   1     2.660590790769   120.13486381     2.43015917
 C      7   3   2     2.708548875369   119.76694188   190.01749680
 C      8   7   3     2.560539627357   120.92853086   170.01456987
 C      5   4   1     2.721593131459   125.03484155   181.55250107
 C     10   5   4     2.688688365544   119.18162459   205.73022114
 N     10   5   4     2.632796056284   124.09679979    25.81722740
 C     12  10   5     2.564998559534   120.74829055   196.64657697
 C     13  12  10     2.607950188493   122.13345539   354.07466742
 C     14  13  12     2.614789381567   117.97610566   352.75093072
 C      6   4   1     2.643864655958   122.34488954    18.82487496
 O     16   6   4     2.295937412515   122.00971581    36.90114513
 N     16   6   4     2.539337020340   111.06228577   214.74155684
 C     18  16   6     2.762614267100   125.42630610     5.78721317
 C     18  16   6     2.760653303870   118.93753835   183.59881606
 H     20  18  16     2.066635167073   110.03543079   246.89790408
 H     20  18  16     2.064385829610   109.61905501   127.46952261
 H     20  18  16     2.051368899891   109.72709164     7.24082158
 H     19  18  16     2.065635383908   109.70953009   240.70616729
 H     19  18  16     2.065905690181   109.36587133   121.75496684
 H     19  18  16     2.047837020271   110.77855549     1.37429410
 H      3   2   1     2.048695145934   120.80562487   185.31642532
 H      1   2   3     2.040489980520   119.81396150   174.43534255
 H      2   1   3     2.049116392786   118.94289035   183.38488538
 H      8   7   3     2.049142179291   118.17837026   355.19095688
 H      9   8   7     2.048380723586   121.54729951   187.10758802
 H     13  12  10     2.041451709928   116.29465338   177.46528527
 H     14  13  12     2.043799453809   119.53221469   178.52439971
 H     15  14  13     2.049429161782   120.45642602   188.48090670
 P     12  10   5     3.423992579947   122.56404095    38.75157052
 O     35  12  10     2.782127359608   112.07051823   355.63365493
 O     35  12  10     2.975060666876    98.21617150   225.60970350
 O     35  12  10     2.995255843670   101.88941864   119.97200525
 C     37  35  12     2.798675787807   122.93346021   198.78809329
 C     38  35  12     2.788946841077   124.45985135   256.28020816
 C     39  37  35     2.851255080514   107.48875146   164.63420448
 H     39  37  35     2.058700476724   107.96373824    43.53111730
 H     39  37  35     2.059203739836   106.95073269   285.54166673
 H     41  39  37     2.063272450006   111.07830002   298.08192769
 H     41  39  37     2.065716951505   108.89663270   178.84355858
 H     41  39  37     2.062358949275   111.10383029    59.67172436
 C     40  38  35     2.857947577390   111.01346354    97.23088102
 H     40  38  35     2.058201508692   108.24083340   333.38218336
 H     40  38  35     2.056631747440   103.60509257   217.64116017
 H     47  40  38     2.066355771852   108.82685631   175.44147448
 H     47  40  38     2.063356711945   111.07129836    56.45250645
 H     47  40  38     2.064331654964   111.70152217   294.62764325

---------------------
BASIS SET INFORMATION
---------------------
There are 5 groups of distinct atoms

 Group   1 Type C   : 11s5p1d contracted to 4s3p1d pattern {6311/311/1}
 Group   2 Type O   : 11s5p1d contracted to 4s3p1d pattern {6311/311/1}
 Group   3 Type N   : 11s5p1d contracted to 4s3p1d pattern {6311/311/1}
 Group   4 Type H   : 5s contracted to 3s pattern {311}
 Group   5 Type P   : 13s9p1d contracted to 6s5p1d pattern {631111/42111/1}

Atom   0C    basis set group =>   1
Atom   1C    basis set group =>   1
Atom   2C    basis set group =>   1
Atom   3C    basis set group =>   1
Atom   4C    basis set group =>   1
Atom   5O    basis set group =>   2
Atom   6C    basis set group =>   1
Atom   7C    basis set group =>   1
Atom   8C    basis set group =>   1
Atom   9C    basis set group =>   1
Atom  10C    basis set group =>   1
Atom  11N    basis set group =>   3
Atom  12C    basis set group =>   1
Atom  13C    basis set group =>   1
Atom  14C    basis set group =>   1
Atom  15C    basis set group =>   1
Atom  16O    basis set group =>   2
Atom  17N    basis set group =>   3
Atom  18C    basis set group =>   1
Atom  19C    basis set group =>   1
Atom  20H    basis set group =>   4
Atom  21H    basis set group =>   4
Atom  22H    basis set group =>   4
Atom  23H    basis set group =>   4
Atom  24H    basis set group =>   4
Atom  25H    basis set group =>   4
Atom  26H    basis set group =>   4
Atom  27H    basis set group =>   4
Atom  28H    basis set group =>   4
Atom  29H    basis set group =>   4
Atom  30H    basis set group =>   4
Atom  31H    basis set group =>   4
Atom  32H    basis set group =>   4
Atom  33H    basis set group =>   4
Atom  34P    basis set group =>   5
Atom  35O    basis set group =>   2
Atom  36O    basis set group =>   2
Atom  37O    basis set group =>   2
Atom  38C    basis set group =>   1
Atom  39C    basis set group =>   1
Atom  40C    basis set group =>   1
Atom  41H    basis set group =>   4
Atom  42H    basis set group =>   4
Atom  43H    basis set group =>   4
Atom  44H    basis set group =>   4
Atom  45H    basis set group =>   4
Atom  46C    basis set group =>   1
Atom  47H    basis set group =>   4
Atom  48H    basis set group =>   4
Atom  49H    basis set group =>   4
Atom  50H    basis set group =>   4
Atom  51H    basis set group =>   4
---------------------------------
AUXILIARY/J BASIS SET INFORMATION
---------------------------------
There are 5 groups of distinct atoms

 Group   1 Type C   : 12s5p4d2f1g contracted to 6s4p3d1f1g pattern {711111/2111/211/2/1}
 Group   2 Type O   : 12s5p4d2f1g contracted to 6s4p3d1f1g pattern {711111/2111/211/2/1}
 Group   3 Type N   : 12s5p4d2f1g contracted to 6s4p3d1f1g pattern {711111/2111/211/2/1}
 Group   4 Type H   : 5s2p1d contracted to 3s1p1d pattern {311/2/1}
 Group   5 Type P   : 14s5p5d2f1g contracted to 8s4p3d1f1g pattern {71111111/2111/311/2/1}

Atom   0C    basis set group =>   1
Atom   1C    basis set group =>   1
Atom   2C    basis set group =>   1
Atom   3C    basis set group =>   1
Atom   4C    basis set group =>   1
Atom   5O    basis set group =>   2
Atom   6C    basis set group =>   1
Atom   7C    basis set group =>   1
Atom   8C    basis set group =>   1
Atom   9C    basis set group =>   1
Atom  10C    basis set group =>   1
Atom  11N    basis set group =>   3
Atom  12C    basis set group =>   1
Atom  13C    basis set group =>   1
Atom  14C    basis set group =>   1
Atom  15C    basis set group =>   1
Atom  16O    basis set group =>   2
Atom  17N    basis set group =>   3
Atom  18C    basis set group =>   1
Atom  19C    basis set group =>   1
Atom  20H    basis set group =>   4
Atom  21H    basis set group =>   4
Atom  22H    basis set group =>   4
Atom  23H    basis set group =>   4
Atom  24H    basis set group =>   4
Atom  25H    basis set group =>   4
Atom  26H    basis set group =>   4
Atom  27H    basis set group =>   4
Atom  28H    basis set group =>   4
Atom  29H    basis set group =>   4
Atom  30H    basis set group =>   4
Atom  31H    basis set group =>   4
Atom  32H    basis set group =>   4
Atom  33H    basis set group =>   4
Atom  34P    basis set group =>   5
Atom  35O    basis set group =>   2
Atom  36O    basis set group =>   2
Atom  37O    basis set group =>   2
Atom  38C    basis set group =>   1
Atom  39C    basis set group =>   1
Atom  40C    basis set group =>   1
Atom  41H    basis set group =>   4
Atom  42H    basis set group =>   4
Atom  43H    basis set group =>   4
Atom  44H    basis set group =>   4
Atom  45H    basis set group =>   4
Atom  46C    basis set group =>   1
Atom  47H    basis set group =>   4
Atom  48H    basis set group =>   4
Atom  49H    basis set group =>   4
Atom  50H    basis set group =>   4
Atom  51H    basis set group =>   4
------------------------------------------------------------------------------
                             ORCA STARTUP CALCULATIONS
                           -- RI-GTO INTEGRALS CHOSEN --
------------------------------------------------------------------------------
------------------------------------------------------------------------------
                   ___                                                        
                  /   \      - P O W E R E D   B Y -                         
                 /     \                                                     
                 |  |  |   _    _      __       _____    __    __             
                 |  |  |  | |  | |    /  \     |  _  \  |  |  /  |          
                  \  \/   | |  | |   /    \    | | | |  |  | /  /          
                 / \  \   | |__| |  /  /\  \   | |_| |  |  |/  /          
                |  |  |   |  __  | /  /__\  \  |    /   |      \           
                |  |  |   | |  | | |   __   |  |    \   |  |\   \          
                \     /   | |  | | |  |  |  |  | |\  \  |  | \   \       
                 \___/    |_|  |_| |__|  |__|  |_| \__\ |__|  \__/        
                                                                              
                      - O R C A' S   B I G   F R I E N D -                    
                                      &                                       
                       - I N T E G R A L  F E E D E R -                       
                                                                              
 v1 FN, 2020, v2 2021, v3 2022-2024                                           
------------------------------------------------------------------------------


----------------------
SHARK INTEGRAL PACKAGE
----------------------

Number of atoms                             ...     52
Number of basis functions                   ...    584
Number of shells                            ...    300
Maximum angular momentum                    ...      2
Integral batch strategy                     ... SHARK/LIBINT Hybrid
RI-J (if used) integral strategy            ... SPLIT-RIJ (Revised 2003 algorithm where possible)
Printlevel                                  ...      1
Contraction scheme used                     ... SEGMENTED contraction
Prescreening option                         ... SCHWARTZ
   Thresh                                   ... 2.500e-11
   Tcut                                     ... 2.500e-12
   Tpresel                                  ... 2.500e-12 
Coulomb Range Separation                    ... NOT USED
Exchange Range Separation                   ... NOT USED
Multipole approximations                    ... NOT USED
Finite Nucleus Model                        ... NOT USED
CABS basis                                  ... NOT available
Auxiliary Coulomb fitting basis             ... AVAILABLE
   # of basis functions in Aux-J            ...   1638
   # of shells in Aux-J                     ...    542
   Maximum angular momentum in Aux-J        ...      4
Auxiliary J/K fitting basis                 ... NOT available
Auxiliary Correlation fitting basis         ... NOT available
Auxiliary 'external' fitting basis          ... NOT available

Checking pre-screening integrals            ... done (  0.0 sec) Dimension = 300
Check shell pair data                       ... done (  0.0 sec)
Shell pair information
Shell pair cut-off parameter TPreSel        ...   2.5e-12
Total number of shell pairs                 ...     45150
Shell pairs after pre-screening             ...     29674
Total number of primitive shell pairs       ...    182167
Primitive shell pairs kept                  ...     69005
          la=0 lb=0:  10703 shell pairs
          la=1 lb=0:  11016 shell pairs
          la=1 lb=1:   2876 shell pairs
          la=2 lb=0:   3107 shell pairs
          la=2 lb=1:   1706 shell pairs
          la=2 lb=2:    266 shell pairs

Calculating one electron integrals          ... done (  0.1 sec)
Calculating RI/J V-Matrix + Cholesky decomp.... done (  0.8 sec)
Calculating Nuclear repulsion               ... done (  0.0 sec) ENN=   3120.525179903791 Eh

Diagonalization of the overlap matrix:
Smallest eigenvalue                        ... 9.936e-05
Time for diagonalization                   ...    0.024 sec
Threshold for overlap eigenvalues          ... 1.000e-07
Number of eigenvalues below threshold      ... 0
Time for construction of square roots      ...    0.038 sec
Total time needed                          ...    0.072 sec

-------------------
DFT GRID GENERATION
-------------------

General Integration Accuracy     IntAcc      ... 4.388
Radial Grid Type                 RadialGrid  ... OptM3 with GC (2021)
Angular Grid (max. ang.)         AngularGrid ... 4 (Lebedev-302)
Angular grid pruning method      GridPruning ... 4 (adaptive)
Weight generation scheme         WeightScheme... mBecke (2022)
Basis function cutoff            BFCut       ... 1.0000e-11
Integration weight cutoff        WCut        ... 1.0000e-14
Partially contracted basis set               ... off
Rotationally invariant grid construction     ... off
Angular grids for H and He will be reduced by one unit

Total number of grid points                  ...   244397
Total number of batches                      ...     3845
Average number of points per batch           ...       63
Average number of grid points per atom       ...     4700

--------------------
COSX GRID GENERATION
--------------------

GRIDX 1
-------
General Integration Accuracy     IntAcc      ... 3.816
Radial Grid Type                 RadialGrid  ... OptM3 with GC (2021)
Angular Grid (max. ang.)         AngularGrid ... 1 (Lebedev-50)
Angular grid pruning method      GridPruning ... 4 (adaptive)
Weight generation scheme         WeightScheme... mBecke (2022)
Basis function cutoff            BFCut       ... 1.0000e-11
Integration weight cutoff        WCut        ... 1.0000e-14
Partially contracted basis set               ... on
Rotationally invariant grid construction     ... off
Angular grids for H and He will be reduced by one unit

Total number of grid points                  ...    32019
Total number of batches                      ...      276
Average number of points per batch           ...      116
Average number of grid points per atom       ...      616
UseSFitting                                  ... on

GRIDX 2
-------
General Integration Accuracy     IntAcc      ... 4.020
Radial Grid Type                 RadialGrid  ... OptM3 with GC (2021)
Angular Grid (max. ang.)         AngularGrid ... 2 (Lebedev-110)
Angular grid pruning method      GridPruning ... 4 (adaptive)
Weight generation scheme         WeightScheme... mBecke (2022)
Basis function cutoff            BFCut       ... 1.0000e-11
Integration weight cutoff        WCut        ... 1.0000e-14
Partially contracted basis set               ... on
Rotationally invariant grid construction     ... off
Angular grids for H and He will be reduced by one unit

Total number of grid points                  ...    66422
Total number of batches                      ...      542
Average number of points per batch           ...      122
Average number of grid points per atom       ...     1277
UseSFitting                                  ... on

GRIDX 3
-------
General Integration Accuracy     IntAcc      ... 4.338
Radial Grid Type                 RadialGrid  ... OptM3 with GC (2021)
Angular Grid (max. ang.)         AngularGrid ... 3 (Lebedev-194)
Angular grid pruning method      GridPruning ... 4 (adaptive)
Weight generation scheme         WeightScheme... mBecke (2022)
Basis function cutoff            BFCut       ... 1.0000e-11
Integration weight cutoff        WCut        ... 1.0000e-14
Partially contracted basis set               ... on
Rotationally invariant grid construction     ... off
Angular grids for H and He will be reduced by one unit

Total number of grid points                  ...   145224
Total number of batches                      ...     1161
Average number of points per batch           ...      125
Average number of grid points per atom       ...     2793
UseSFitting                                  ... on
Initializing property integral containers    ... done (  0.0 sec)

SHARK setup successfully completed in   7.7 seconds

Maximum memory used throughout the entire STARTUP-calculation: 129.0 MB
-------------------------------------------------------------------------------
                                 ORCA GUESS
                   Start orbitals & Density for SCF / CASSCF
-------------------------------------------------------------------------------

------------
SCF SETTINGS
------------
Hamiltonian:
 Density Functional     Method          .... DFT(GTOs)
 Exchange Functional    Exchange        .... B88
   X-Alpha parameter    XAlpha          ....  0.666667
   Becke's b parameter  XBeta           ....  0.004200
 Correlation Functional Correlation     .... LYP
 LDA part of GGA corr.  LDAOpt          .... VWN-3
 Gradients option       PostSCFGGA      .... off
 Hybrid DFT is turned on
   Fraction HF Exchange ScalHFX         ....  0.200000
   Scaling of DF-GGA-X  ScalDFX         ....  0.720000
   Scaling of DF-GGA-C  ScalDFC         ....  0.810000
   Scaling of DF-LDA-C  ScalLDAC        ....  1.000000
   Perturbative correction              ....  0.000000
   NL short-range parameter             ....  4.800000
 RI-approximation to the Coulomb term is turned on
   Number of AuxJ basis functions       .... 1638
   RIJ-COSX (HFX calculated with COS-X)).... on


General Settings:
 Integral files         IntName         .... hbq-dcp-gs
 Hartree-Fock type      HFTyp           .... RHF
 Total Charge           Charge          ....    1
 Multiplicity           Mult            ....    1
 Number of Electrons    NEL             ....  212
 Basis Dimension        Dim             ....  584
 Nuclear Repulsion      ENuc            ....   3120.5251799038 Eh

Convergence Acceleration:
 AO-DIIS                CNVDIIS         .... on
   Start iteration      DIISMaxIt       ....    12
   Startup error        DIISStart       ....  0.200000
   # of expansion vecs  DIISMaxEq       ....     5
   Bias factor          DIISBfac        ....   1.050
   Max. coefficient     DIISMaxC        ....  10.000
 MO-DIIS                CNVKDIIS        .... off
 Trust-Rad. Augm. Hess. CNVTRAH         .... auto
   Auto Start mean grad. ratio tolernc. ....  1.125000
   Auto Start start iteration           ....    50
   Auto Start num. interpolation iter.  ....    10
   Max. Number of Micro iterations      ....    24
   Max. Number of Macro iterations      .... Maxiter - #DIIS iter
   Number of Davidson start vectors     ....     2
   Converg. threshold    (grad. norm)   ....   1.000e-05
   Grad. Scal. Fac. for Micro threshold ....   0.100
   Minimum threshold for Micro iter.    ....   1.000e-02
   NR start threshold (gradient norm)   ....   1.000e-04
   Initial trust radius                 ....   0.400
   Minimum AH scaling param. (alpha)    ....   1.000
   Maximum AH scaling param. (alpha)    .... 1000.000
   Quad. conv. algorithm                .... NR
   White noise on init. David. guess    .... on
   Maximum white noise                  ....   0.010
   Pseudo random numbers                .... off
   Inactive MOs                         .... canonical
   Orbital update algorithm             .... Taylor
   Preconditioner                       .... Diag
   Full preconditioner red. dimension   ....   250
 SOSCF                  CNVSOSCF        .... on
   Start iteration      SOSCFMaxIt      ....   150
   Startup grad/error   SOSCFStart      ....  0.003300
   Hessian update       SOSCFHessUp     .... L-BFGS
 Level Shifting         CNVShift        .... on
   Level shift para.    LevelShift      ....    0.2500
   Turn off err/grad.   ShiftErr        ....    0.0010
 Zerner damping         CNVZerner       .... off
 Static damping         CNVDamp         .... on
   Fraction old density DampFac         ....    0.7000
   Max. Damping (<1)    DampMax         ....    0.9800
   Min. Damping (>=0)   DampMin         ....    0.0000
   Turn off err/grad.   DampErr         ....    0.1000

SCF Procedure:
 Maximum # iterations   MaxIter         ....   125
 SCF integral mode      SCFMode         .... Direct
   Integral package                     .... SHARK and LIBINT hybrid scheme
 Reset frequency        DirectResetFreq ....    20
 Integral Threshold     Thresh          ....  2.500e-11 Eh
 Primitive CutOff       TCut            ....  2.500e-12 Eh

Convergence Tolerance:
 Convergence Check Mode ConvCheckMode   .... Total+1el-Energy
 Convergence forced     ConvForced      .... 0
 Energy Change          TolE            ....  1.000e-08 Eh
 1-El. energy change                    ....  1.000e-05 Eh
 Orbital Gradient       TolG            ....  1.000e-05
 Orbital Rotation angle TolX            ....  1.000e-05
 DIIS Error             TolErr          ....  5.000e-07

------------------------------
INITIAL GUESS: MODEL POTENTIAL
------------------------------
Loading Hartree-Fock densities                     ... done
Calculating cut-offs                               ... done
Initializing the effective Hamiltonian             ... done
Setting up the integral package (SHARK)            ... done
Starting the Coulomb interaction                   ... done (   1.3 sec)
Making the grid                                    ... done (   0.7 sec)
Mapping shells                                     ... done
Starting the XC term evaluation                    ... done (   0.5 sec)
  promolecular density results
     # of electrons  =    212.994204620
     EX              =   -186.927659119
     EC              =     -7.402930799
     EX+EC           =   -194.330589918
Transforming the Hamiltonian                       ... done (   0.0 sec)
Diagonalizing the Hamiltonian                      ... done (   0.0 sec)
Back transforming the eigenvectors                 ... done (   0.0 sec)
Now organizing SCF variables                       ... done
                      ------------------
                      INITIAL GUESS DONE (   2.6 sec)
                      ------------------
             **** ENERGY FILE WAS UPDATED (hbq-dcp-gs.en.tmp) ****
Finished Guess after   2.9 sec
Maximum memory used throughout the entire GUESS-calculation: 80.0 MB

-------------------------------------------------------------------------------------------
                                      ORCA LEAN-SCF
                              memory conserving SCF solver
-------------------------------------------------------------------------------------------

--------------------
CPCM SOLVATION MODEL
--------------------
CPCM parameters:
  Epsilon                                         ...      80.1510
  Refrac                                          ...       1.3328
  Rsolv                                           ...       1.3000
  Surface type                                    ... GAUSSIAN VDW
  Discretization scheme                           ... Constant charge density
    Threshold for H atoms                         ...       5.0000 (charges/Ang^2)
    Threshold for non-H atoms                     ...       5.0000 (charges/Ang^2)
  Epsilon function type                           ...         CPCM
Solvent:                                          ... WATER
Radii:
  Scheme                                          ... Element-dependent radii
  Radius for C  used is    3.8550 Bohr (=   2.0400 Ang.)
  Radius for O  used is    3.4469 Bohr (=   1.8240 Ang.)
  Radius for N  used is    3.5149 Bohr (=   1.8600 Ang.)
  Radius for H  used is    2.4944 Bohr (=   1.3200 Ang.)
  Radius for P  used is    4.0818 Bohr (=   2.1600 Ang.)
Calculating surface                               ...        done! (  0.0s)
Cavity surface points                             ...         4403
Cavity Volume                                     ...    3096.7342
Cavity Surface-area                               ...    1540.0518
Calculating surface distance matrix               ...        done! (  0.1s)
Performing Cholesky decomposition & store         ...        done! (  2.0s)
Overall time for CPCM initialization              ...                 2.0s

----------------------------------------D-I-I-S--------------------------------------------
Iteration    Energy (Eh)           Delta-E    RMSDP     MaxDP     DIISErr   Damp  Time(sec)
-------------------------------------------------------------------------------------------
               ***  Starting incremental Fock matrix formation  ***
    1    -1602.9957612939888350     0.00e+00  1.61e-03  1.22e-01  4.11e-01  0.700  32.6
    2    -1603.3867668507364215    -3.91e-01  9.99e-04  5.64e-02  1.37e-01  0.700  16.8
                               ***Turning on AO-DIIS***
    3    -1603.5283707346125084    -1.42e-01  3.71e-04  1.40e-02  4.41e-02  0.700  16.5
    4    -1603.6178555349470116    -8.95e-02  6.28e-04  2.63e-02  2.19e-02  0.000  15.3
    5    -1603.8174714347333065    -2.00e-01  1.40e-04  6.16e-03  6.77e-03  0.000  16.3
                              *** Initializing SOSCF ***
---------------------------------------S-O-S-C-F--------------------------------------
Iteration    Energy (Eh)           Delta-E    RMSDP     MaxDP     MaxGrad    Time(sec)
--------------------------------------------------------------------------------------
    6    -1603.8184493382541405    -9.78e-04  4.29e-05  1.29e-03  2.02e-03    14.4
               *** Restarting incremental Fock matrix formation ***
    7    -1603.8185297494737824    -8.04e-05  3.34e-05  1.44e-03  3.97e-04    33.0
    8    -1603.8185101524759375     1.96e-05  1.90e-05  9.00e-04  8.15e-04    21.0
    9    -1603.8185450681667135    -3.49e-05  2.49e-06  8.85e-05  2.09e-05    19.0
   10    -1603.8185450446790128     2.35e-08  1.04e-06  6.12e-05  2.62e-05    14.6
   11    -1603.8185451695680968    -1.25e-07  7.98e-07  2.95e-05  9.69e-06    12.5
   12    -1603.8185451542503870     1.53e-08  3.87e-07  1.69e-05  8.99e-06    12.0
   13    -1603.8185451677200035    -1.35e-08  1.39e-07  5.58e-06  8.94e-07    10.9
                  *** Gradient check signals convergence ***

               *****************************************************
               *                     SUCCESS                       *
               *           SCF CONVERGED AFTER  13 CYCLES          *
               *****************************************************

Recomputing exchange energy using gridx3       ... done (   52.250 sec)
Old exchange energy                            :    -37.864215410 Eh
New exchange energy                            :    -37.864224179 Eh
Exchange energy change after final integration :     -0.000008768 Eh
Total energy after final integration           :  -1603.818553936 Eh
             **** ENERGY FILE WAS UPDATED (hbq-dcp-gs.en.tmp) ****

----------------
TOTAL SCF ENERGY
----------------

Total Energy       :      -1603.81855393604633 Eh          -43642.12158 eV

Components:
Nuclear Repulsion  :       3120.52517990379056 Eh           84913.80708 eV
Electronic Energy  :      -4724.25688576170978 Eh         -128553.56540 eV
One Electron Energy:      -8374.95969672405954 Eh         -227894.23927 eV
Two Electron Energy:       3650.70281096234976 Eh           99340.67387 eV
CPCM Dielectric    :         -0.08683930980080 Eh              -2.36302 eV

Virial components:
Potential Energy   :      -3202.36426656141975 Eh          -87140.76184 eV
Kinetic Energy     :       1598.54571262537365 Eh           43498.64027 eV
Virial Ratio       :          2.00329852394525

DFT components:
N(Alpha)           :      106.000225443537 electrons
N(Beta)            :      106.000225443537 electrons
N(Total)           :      212.000450887073 electrons
E(X)               :     -150.511608111901 Eh       
E(C)               :       -9.459860595209 Eh       
E(XC)              :     -159.971468707109 Eh       

CPCM Solvation Model Properties:
Surface-charge          :         -1.03017063242032
Corrected charge        :         -1.00000000000000
Outlying charge corr.   :          0.00004503879623 Eh               0.00123 eV
Free-energy (cav+disp)  :  This term is not implemented in the current solvation scheme

---------------
SCF CONVERGENCE
---------------

  Last Energy change         ...    1.3470e-08  Tolerance :   1.0000e-08
  Last MAX-Density change    ...    5.5783e-06  Tolerance :   1.0000e-07
  Last RMS-Density change    ...    1.3926e-07  Tolerance :   5.0000e-09
  Last DIIS Error            ...    2.0187e-03  Tolerance :   5.0000e-07
  Last Orbital Gradient      ...    8.9412e-07  Tolerance :   1.0000e-05
  Last Orbital Rotation      ...    4.6118e-06  Tolerance :   1.0000e-05


----------------
ORBITAL ENERGIES
----------------

  NO   OCC          E(Eh)            E(eV) 
   0   2.0000     -77.225437     -2101.4110 
   1   2.0000     -19.187940      -522.1304 
   2   2.0000     -19.179438      -521.8990 
   3   2.0000     -19.175974      -521.8048 
   4   2.0000     -19.118257      -520.2342 
   5   2.0000     -19.106039      -519.9017 
   6   2.0000     -14.429694      -392.6519 
   7   2.0000     -14.360652      -390.7732 
   8   2.0000     -10.335371      -281.2397 
   9   2.0000     -10.281986      -279.7871 
  10   2.0000     -10.272216      -279.5212 
  11   2.0000     -10.270419      -279.4723 
  12   2.0000     -10.244577      -278.7691 
  13   2.0000     -10.242124      -278.7024 
  14   2.0000     -10.233838      -278.4769 
  15   2.0000     -10.231195      -278.4050 
  16   2.0000     -10.224004      -278.2093 
  17   2.0000     -10.217172      -278.0234 
  18   2.0000     -10.217168      -278.0233 
  19   2.0000     -10.201831      -277.6059 
  20   2.0000     -10.201111      -277.5863 
  21   2.0000     -10.200837      -277.5789 
  22   2.0000     -10.199296      -277.5369 
  23   2.0000     -10.197285      -277.4822 
  24   2.0000     -10.190689      -277.3027 
  25   2.0000     -10.189081      -277.2590 
  26   2.0000     -10.168344      -276.6947 
  27   2.0000     -10.167634      -276.6754 
  28   2.0000      -6.706226      -182.4857 
  29   2.0000      -4.868587      -132.4810 
  30   2.0000      -4.868149      -132.4691 
  31   2.0000      -4.866948      -132.4364 
  32   2.0000      -1.131887       -30.8002 
  33   2.0000      -1.117903       -30.4197 
  34   2.0000      -1.061241       -28.8778 
  35   2.0000      -1.043890       -28.4057 
  36   2.0000      -1.029977       -28.0271 
  37   2.0000      -1.007247       -27.4086 
  38   2.0000      -0.958067       -26.0703 
  39   2.0000      -0.907272       -24.6881 
  40   2.0000      -0.871841       -23.7240 
  41   2.0000      -0.843860       -22.9626 
  42   2.0000      -0.814231       -22.1564 
  43   2.0000      -0.791649       -21.5419 
  44   2.0000      -0.779975       -21.2242 
  45   2.0000      -0.775427       -21.1004 
  46   2.0000      -0.765941       -20.8423 
  47   2.0000      -0.730078       -19.8664 
  48   2.0000      -0.723036       -19.6748 
  49   2.0000      -0.702143       -19.1063 
  50   2.0000      -0.689321       -18.7574 
  51   2.0000      -0.675749       -18.3881 
  52   2.0000      -0.662210       -18.0196 
  53   2.0000      -0.649740       -17.6803 
  54   2.0000      -0.640748       -17.4356 
  55   2.0000      -0.606917       -16.5151 
  56   2.0000      -0.600220       -16.3328 
  57   2.0000      -0.575121       -15.6498 
  58   2.0000      -0.559431       -15.2229 
  59   2.0000      -0.554257       -15.0821 
  60   2.0000      -0.546618       -14.8742 
  61   2.0000      -0.544607       -14.8195 
  62   2.0000      -0.540882       -14.7181 
  63   2.0000      -0.514870       -14.0103 
  64   2.0000      -0.511894       -13.9293 
  65   2.0000      -0.504616       -13.7313 
  66   2.0000      -0.500200       -13.6111 
  67   2.0000      -0.496424       -13.5084 
  68   2.0000      -0.486898       -13.2492 
  69   2.0000      -0.483335       -13.1522 
  70   2.0000      -0.474922       -12.9233 
  71   2.0000      -0.467757       -12.7283 
  72   2.0000      -0.465359       -12.6631 
  73   2.0000      -0.457743       -12.4558 
[...]
133:   3041.77   0.002721   13.75  0.000279  (-0.014001  0.005756 -0.007072)
134:   3043.25   0.018266   92.31  0.001873  ( 0.000377  0.000530 -0.043274)
135:   3048.23   0.004401   22.24  0.000451  (-0.002352 -0.005277  0.020424)
136:   3087.59   0.004346   21.96  0.000439  (-0.014935  0.012607  0.007570)
137:   3089.21   0.014426   72.90  0.001457  ( 0.009582  0.036829  0.003010)
138:   3095.04   0.003672   18.56  0.000370  ( 0.003513  0.018697 -0.002887)
139:   3096.82   0.001377    6.96  0.000139  (-0.009154  0.006994  0.002458)
140:   3108.16   0.009575   48.39  0.000961  ( 0.005208 -0.027068 -0.014198)
141:   3113.33   0.010681   53.98  0.001071  ( 0.025762 -0.004601 -0.019640)
142:   3113.40   0.003306   16.71  0.000331  (-0.013947  0.011396 -0.002641)
143:   3120.43   0.002886   14.59  0.000289  ( 0.001177  0.014701  0.008434)
144:   3150.06   0.009124   46.11  0.000904  (-0.022138 -0.018980 -0.007321)
145:   3157.25   0.005635   28.48  0.000557  ( 0.008289  0.021065 -0.006670)
146:   3179.25   0.001360    6.87  0.000134  (-0.009711  0.002992  0.005502)
147:   3187.02   0.000667    3.37  0.000065  (-0.007742 -0.002260 -0.000486)
148:   3191.29   0.000360    1.82  0.000035  ( 0.004023 -0.001287  0.004173)
149:   3197.55   0.001781    9.00  0.000174  (-0.009181  0.004365 -0.008395)
150:   3201.17   0.004970   25.12  0.000485  (-0.011514 -0.015902  0.009953)
151:   3203.42   0.000271    1.37  0.000026  (-0.003624 -0.002739  0.002394)
152:   3206.53   0.002661   13.45  0.000259  (-0.007548  0.010595 -0.009474)
153:   3233.14   0.000280    1.41  0.000027  (-0.000699  0.004618 -0.002277)
154:   3242.88   0.000027    0.14  0.000003  (-0.000339  0.000137  0.001570)
155:   3252.27   0.002142   10.82  0.000205  ( 0.000104  0.013269 -0.005423)

* The epsilon (eps) is given for a Dirac delta lineshape.
** The dipole moment derivative (T) already includes vibrational overlap.

The first frequency considered to be a vibration is 6
The total number of vibrations considered is 150


--------------------------
THERMOCHEMISTRY AT 298.15K
--------------------------

Temperature         ...   298.15 K
Pressure            ...     1.00 atm
Total Mass          ...   403.39 AMU
Quasi RRHO          ...     True
Cut-Off Frequency   ...     1.00 cm^-1

Throughout the following assumptions are being made:
  (1) The electronic state is orbitally nondegenerate
  (2) There are no thermally accessible electronically excited states
  (3) Hindered rotations indicated by low frequency modes are not
      treated as such but are treated as vibrations and this may
      cause some error
  (4) All equations used are the standard statistical mechanics
      equations for an ideal gas
  (5) All vibrations are strictly harmonic

freq.      24.01  E(vib)   ...       0.56 
freq.      29.52  E(vib)   ...       0.55 
freq.      33.40  E(vib)   ...       0.55 
freq.      38.04  E(vib)   ...       0.54 
freq.      47.01  E(vib)   ...       0.53 
freq.      53.55  E(vib)   ...       0.52 
freq.      56.34  E(vib)   ...       0.52 
freq.      64.54  E(vib)   ...       0.51 
freq.      72.98  E(vib)   ...       0.49 
freq.      74.28  E(vib)   ...       0.49 
freq.      87.59  E(vib)   ...       0.48 
freq.      97.01  E(vib)   ...       0.46 
freq.     104.25  E(vib)   ...       0.46 
freq.     124.72  E(vib)   ...       0.43 
freq.     133.81  E(vib)   ...       0.42 
freq.     152.40  E(vib)   ...       0.40 
freq.     184.09  E(vib)   ...       0.37 
freq.     190.62  E(vib)   ...       0.36 
freq.     207.13  E(vib)   ...       0.34 
freq.     222.64  E(vib)   ...       0.33 
freq.     236.11  E(vib)   ...       0.32 
freq.     249.60  E(vib)   ...       0.31 
freq.     253.69  E(vib)   ...       0.30 
freq.     254.48  E(vib)   ...       0.30 
freq.     266.11  E(vib)   ...       0.29 
freq.     274.72  E(vib)   ...       0.28 
freq.     304.18  E(vib)   ...       0.26 
freq.     309.67  E(vib)   ...       0.26 
freq.     336.65  E(vib)   ...       0.24 
freq.     351.99  E(vib)   ...       0.23 
freq.     381.76  E(vib)   ...       0.21 
freq.     396.52  E(vib)   ...       0.20 
freq.     414.48  E(vib)   ...       0.19 
freq.     433.93  E(vib)   ...       0.17 
freq.     440.42  E(vib)   ...       0.17 
freq.     473.66  E(vib)   ...       0.15 
freq.     482.14  E(vib)   ...       0.15 
freq.     496.87  E(vib)   ...       0.14 
freq.     511.28  E(vib)   ...       0.14 
freq.     517.28  E(vib)   ...       0.13 
freq.     523.79  E(vib)   ...       0.13 
freq.     540.53  E(vib)   ...       0.12 
freq.     559.76  E(vib)   ...       0.12 
freq.     584.18  E(vib)   ...       0.11 
freq.     624.53  E(vib)   ...       0.09 
freq.     628.04  E(vib)   ...       0.09 
freq.     660.04  E(vib)   ...       0.08 
freq.     706.56  E(vib)   ...       0.07 
freq.     719.46  E(vib)   ...       0.07 
freq.     723.39  E(vib)   ...       0.07 
freq.     743.33  E(vib)   ...       0.06 
freq.     759.92  E(vib)   ...       0.06 
freq.     774.91  E(vib)   ...       0.05 
freq.     781.44  E(vib)   ...       0.05 
freq.     787.99  E(vib)   ...       0.05 
freq.     814.09  E(vib)   ...       0.05 
freq.     817.17  E(vib)   ...       0.05 
freq.     820.70  E(vib)   ...       0.05 
freq.     823.63  E(vib)   ...       0.05 
freq.     838.67  E(vib)   ...       0.04 
freq.     848.79  E(vib)   ...       0.04 
freq.     900.90  E(vib)   ...       0.03 
freq.     907.47  E(vib)   ...       0.03 
freq.     947.90  E(vib)   ...       0.03 
freq.     960.88  E(vib)   ...       0.03 
freq.     975.92  E(vib)   ...       0.03 
freq.     982.64  E(vib)   ...       0.02 
freq.     986.45  E(vib)   ...       0.02 
freq.     994.84  E(vib)   ...       0.02 
freq.     998.05  E(vib)   ...       0.02 
freq.    1015.02  E(vib)   ...       0.02 
freq.    1018.90  E(vib)   ...       0.02 
freq.    1030.64  E(vib)   ...       0.02 
freq.    1061.43  E(vib)   ...       0.02 
freq.    1081.83  E(vib)   ...       0.02 
freq.    1113.60  E(vib)   ...       0.01 
freq.    1113.95  E(vib)   ...       0.01 
freq.    1123.10  E(vib)   ...       0.01 
freq.    1131.33  E(vib)   ...       0.01 
freq.    1133.70  E(vib)   ...       0.01 
freq.    1137.19  E(vib)   ...       0.01 
freq.    1152.55  E(vib)   ...       0.01 
freq.    1175.76  E(vib)   ...       0.01 
freq.    1179.36  E(vib)   ...       0.01 
freq.    1181.35  E(vib)   ...       0.01 
freq.    1186.96  E(vib)   ...       0.01 
freq.    1201.14  E(vib)   ...       0.01 
freq.    1214.02  E(vib)   ...       0.01 
freq.    1238.62  E(vib)   ...       0.01 
freq.    1258.52  E(vib)   ...       0.01 
freq.    1273.78  E(vib)   ...       0.01 
freq.    1283.70  E(vib)   ...       0.01 
freq.    1289.62  E(vib)   ...       0.01 
freq.    1298.84  E(vib)   ...       0.01 
freq.    1319.47  E(vib)   ...       0.01 
freq.    1324.81  E(vib)   ...       0.01 
freq.    1347.56  E(vib)   ...       0.01 
freq.    1358.42  E(vib)   ...       0.01 
freq.    1407.83  E(vib)   ...       0.00 
freq.    1409.50  E(vib)   ...       0.00 
freq.    1414.90  E(vib)   ...       0.00 
freq.    1421.79  E(vib)   ...       0.00 
freq.    1423.07  E(vib)   ...       0.00 
freq.    1426.18  E(vib)   ...       0.00 
freq.    1449.81  E(vib)   ...       0.00 
freq.    1454.02  E(vib)   ...       0.00 
freq.    1459.63  E(vib)   ...       0.00 
freq.    1471.39  E(vib)   ...       0.00 
freq.    1478.05  E(vib)   ...       0.00 
freq.    1483.62  E(vib)   ...       0.00 
freq.    1487.05  E(vib)   ...       0.00 
freq.    1491.84  E(vib)   ...       0.00 
freq.    1491.86  E(vib)   ...       0.00 
freq.    1495.65  E(vib)   ...       0.00 
freq.    1500.89  E(vib)   ...       0.00 
freq.    1504.45  E(vib)   ...       0.00 
freq.    1516.98  E(vib)   ...       0.00 
freq.    1519.72  E(vib)   ...       0.00 
freq.    1526.39  E(vib)   ...       0.00 
freq.    1536.18  E(vib)   ...       0.00 
freq.    1555.16  E(vib)   ...       0.00 
freq.    1598.82  E(vib)   ...       0.00 
freq.    1618.96  E(vib)   ...       0.00 
freq.    1640.51  E(vib)   ...       0.00 
freq.    1658.71  E(vib)   ...       0.00 
freq.    1760.63  E(vib)   ...       0.00 
freq.    3038.45  E(vib)   ...       0.00 
freq.    3041.77  E(vib)   ...       0.00 
freq.    3043.25  E(vib)   ...       0.00 
freq.    3048.23  E(vib)   ...       0.00 
freq.    3087.59  E(vib)   ...       0.00 
freq.    3089.21  E(vib)   ...       0.00 
freq.    3095.04  E(vib)   ...       0.00 
freq.    3096.82  E(vib)   ...       0.00 
freq.    3108.16  E(vib)   ...       0.00 
freq.    3113.33  E(vib)   ...       0.00 
freq.    3113.40  E(vib)   ...       0.00 
freq.    3120.43  E(vib)   ...       0.00 
freq.    3150.06  E(vib)   ...       0.00 
freq.    3157.25  E(vib)   ...       0.00 
freq.    3179.25  E(vib)   ...       0.00 
freq.    3187.02  E(vib)   ...       0.00 
freq.    3191.29  E(vib)   ...       0.00 
freq.    3197.55  E(vib)   ...       0.00 
freq.    3201.17  E(vib)   ...       0.00 
freq.    3203.42  E(vib)   ...       0.00 
freq.    3206.53  E(vib)   ...       0.00 
freq.    3233.14  E(vib)   ...       0.00 
freq.    3242.88  E(vib)   ...       0.00 
freq.    3252.27  E(vib)   ...       0.00 

------------
INNER ENERGY
------------

The inner energy is: U= E(el) + E(ZPE) + E(vib) + E(rot) + E(trans)
    E(el)   - is the total energy from the electronic structure calculation
              = E(kin-el) + E(nuc-el) + E(el-el) + E(nuc-nuc)
    E(ZPE)  - the the zero temperature vibrational energy from the frequency calculation
    E(vib)  - the the finite temperature correction to E(ZPE) due to population
              of excited vibrational states
    E(rot)  - is the rotational thermal energy
    E(trans)- is the translational thermal energy

Summary of contributions to the inner energy U:
Electronic energy                ...  -1603.81855387 Eh
Zero point energy                ...      0.41910466 Eh     262.99 kcal/mol
Thermal vibrational correction   ...      0.02530299 Eh      15.88 kcal/mol
Thermal rotational correction    ...      0.00141627 Eh       0.89 kcal/mol
Thermal translational correction ...      0.00141627 Eh       0.89 kcal/mol
-----------------------------------------------------------------------
Total thermal energy                  -1603.37131368 Eh


Summary of corrections to the electronic energy:
(perhaps to be used in another calculation)
Total thermal correction                  0.02813553 Eh      17.66 kcal/mol
Non-thermal (ZPE) correction              0.41910466 Eh     262.99 kcal/mol
-----------------------------------------------------------------------
Total correction                          0.44724019 Eh     280.65 kcal/mol


--------
ENTHALPY
--------

The enthalpy is H = U + kB*T
                kB is Boltzmann's constant
Total thermal energy              ...  -1603.37131368 Eh 
Thermal Enthalpy correction       ...      0.00094421 Eh       0.59 kcal/mol
-----------------------------------------------------------------------
Total Enthalpy                    ...  -1603.37036947 Eh


Note: Only C1 symmetry has been detected, increase convergence thresholds 
      if your molecule has a higher symmetry. Symmetry factor of 1.0 is   
      used for the rotational entropy correction. 
 

Note: Rotational entropy computed according to Herzberg 
Infrared and Raman Spectra, Chapter V,1, Van Nostrand Reinhold, 1945 
Point Group:  C1, Symmetry Number:   1  
Rotational constants in cm-1:     0.007037     0.006015     0.004308 

Vibrational entropy computed according to the QRRHO of S. Grimme
Chem.Eur.J. 2012 18 9955 using a reference frequency of 100.0 cm-1


-------
ENTROPY
-------

The entropy contributions are T*S = T*(S(el)+S(vib)+S(rot)+S(trans))
     S(el)   - electronic entropy
     S(vib)  - vibrational entropy
     S(rot)  - rotational entropy
     S(trans)- translational entropy
The entropies will be listed as multiplied by the temperature to get
units of energy

Electronic entropy                ...      0.00000000 Eh      0.00 kcal/mol
Vibrational entropy               ...      0.04559031 Eh     28.61 kcal/mol
Rotational entropy                ...      0.01683638 Eh     10.56 kcal/mol
Translational entropy             ...      0.02084658 Eh     13.08 kcal/mol
-----------------------------------------------------------------------
Final entropy term                ...      0.08327327 Eh     52.25 kcal/mol

In case the symmetry of your molecule has not been determined correctly
or in case you have a reason to use a different symmetry number we print 
out the resulting rotational entropy values for sn=1,12:

 non-linear molecules -----------------------------------
|  sn= 1 | S(rot)=       0.01683638 Eh     10.56 kcal/mol|
|  sn= 2 | S(rot)=       0.01618192 Eh     10.15 kcal/mol|
|  sn= 3 | S(rot)=       0.01579909 Eh      9.91 kcal/mol|
|  sn= 4 | S(rot)=       0.01552747 Eh      9.74 kcal/mol|
|  sn= 5 | S(rot)=       0.01531678 Eh      9.61 kcal/mol|
|  sn= 6 | S(rot)=       0.01514464 Eh      9.50 kcal/mol|
|  sn= 7 | S(rot)=       0.01499909 Eh      9.41 kcal/mol|
|  sn= 8 | S(rot)=       0.01487301 Eh      9.33 kcal/mol|
|  sn= 9 | S(rot)=       0.01476180 Eh      9.26 kcal/mol|
|  sn=10 | S(rot)=       0.01466232 Eh      9.20 kcal/mol|
|  sn=11 | S(rot)=       0.01457233 Eh      9.14 kcal/mol|
|  sn=12 | S(rot)=       0.01449018 Eh      9.09 kcal/mol|
 linear molecules ---------------------------------------
|  Dinfh | S(rot)=       0.01046894 Eh      6.57 kcal/mol|
|  Cinfv | S(rot)=       0.01112340 Eh      6.98 kcal/mol|
 --------------------------------------------------------


-------------------
GIBBS FREE ENERGY
-------------------

The Gibbs free energy is G = H - T*S

Total enthalpy                    ...  -1603.37036947 Eh 
Total entropy correction          ...     -0.08327327 Eh    -52.25 kcal/mol
-----------------------------------------------------------------------
Final Gibbs free energy         ...  -1603.45364274 Eh

For completeness - the Gibbs free energy minus the electronic energy
G-E(el)                           ...      0.36491113 Eh    228.98 kcal/mol


Maximum memory used throughout the entire PROP-calculation: 479.0 MB

--------------------------------
SUGGESTED CITATIONS FOR THIS RUN
--------------------------------

Below you find a list of papers that are relevant to this ORCA run
We neither can nor want to force you to cite these papers, but we appreciate if you do
You receive ORCA, which is the product of decades of hard work by many enthusiastic individuals, for free
The only thing we kindly ask in return is that you cite our papers,
We deeply appreciate it, if you show your appreciation for ORCA by not just citing the generic ORCA reference.

Please note that relegating all ORCA citations to the supporting information does *not* help us.
SI sections are not indexed - citations you put there will not count into any citation statistics
But we need these citations in order to attract the funding resources that allow us to do what we are doing

Therefore, if you are a happy ORCA user, please consider citing a few of the papers listed below in the main body of your paper

In addition to the list printed below, the program has created the file hbq-dcp-gs.bibtex that contains the list in bibtex format
You can import this file easily into all common literature databanks and citation aid programs


List of essential papers. We consider these as the minimum necessary citations

  1. Neese,F.
     Software update: the ORCA program system, version 5.0
     WIRES Comput. Molec. Sci., 2022 12(1)e1606
     doi.org/10.1002/wcms.1606

List of papers to cite with high priority. The work reported in these papers was absolutely
necessary for this run to complete.
Our perspective: the developers of density functionals and basis sets usually get cited in chemistry papers
Good! But without the algorithms to do something with them, the functionals or basis sets would not do anything.
Hence, in our opinion, the algorithm design and method developments papers are equally worthy of getting cited

  1. Neese,F.
     An improvement of the resolution of the identity approximation for the formation of the Coulomb matrix
     J. Comp. Chem., 2003 24(14)1740-1747
     doi.org/10.1002/jcc.10318
  2. Neese,F.; Wennmohs,F.; Hansen,A.; Becker,U.
     Efficient, approximate and parallel Hartree-Fock and hybrid DFT calculations. A 'chain-of-spheres' algorithm for the Hartree-Fock exchange
     Chem. Phys., 2009 356(1-3)98-109
     doi.org/10.1016/j.chemphys.2008.10.036
  3. Bykov,D.; Petrenko,T.; Izsak,R.; Kossmann,S.; Becker,U.; Valeev,E.; Neese,F.
     Efficient implementation of the analytic second derivatives of Hartree-Fock and hybrid DFT energies: a detailed analysis of different approximations
     Molec. Phys., 2015 113 1961-1977
     doi.org/10.1080/00268976.2015.1025114
  4. Garcia-Rates,M.; Neese,F.
     Efficient implementation of the analytical second derivatives of hartree-fock and hybrid DFT energies within the framework of the conductor-like polarizable continuum model
     J. Comput. Chem., 2019 40 1816-1828
     doi.org/10.1002/jcc.25833
  5. Garcia-Rates,M.; Neese,F.
     Effect of the Solute Cavity on the Solvation Energy and its Derivatives within the Framework of the Gaussian Charge Scheme
     J. Comput. Chem., 2020 41 922-939
     doi.org/10.1002/jcc.26139
  6. Helmich-Paris,B.; de Souza,B.; Neese,F.; Izsák,R.
     An improved chain of spheres for exchange algorithm
     J. Chem. Phys., 2021 155 104109
     doi.org/doi: 10.1063/5.0058766.
  7. Neese,F.
     The SHARK Integral Generation and Digestion System
     J. Comp. Chem., 2022  1-16
     doi.org/10.1002/jcc.26942

List of suggested additional citations. These are papers that are important in the 'surrounding' of 
of this run, or papers that preceded the highly important papers. If you like your results we are grateful for a citation.

  1. Izsak,R.; Neese,F.
     An overlap fitted chain of spheres exchange method
     J. Chem. Phys., 2011 135 144105
     doi.org/10.1063/1.3646921
  2. Izsak,R.; Hansen,A.; Neese,F.
     The resolution of identity and chain of spheres approximations for the LPNO-CCSD singles Fock term
     Molec. Phys., 2012 110 2413-2417
     doi.org/10.1080/00268976.2012.687466
  3. Neese,F.
     The ORCA program system
     WIRES Comput. Molec. Sci., 2012 2(1)73-78
     doi.org/10.1002/wcms.81
  4. Izsak,R.; Neese,F.; Klopper,W.
     Robust fitting techniques in the chain of spheres approximation to the Fock exchange: The role of the complementary space
     J. Chem. Phys., 2013 139 
     doi.org/10.1063/1.4819264
  5. Neese,F.
     Software update: the ORCA program system, version 4.0
     WIRES Comput. Molec. Sci., 2018 8(1)1-6
     doi.org/10.1002/wcms.1327
  6. Neese,F.; Wennmohs,F.; Becker,U.; Riplinger,C.
     The ORCA quantum chemistry program package
     J. Chem. Phys., 2020 152 Art. No. L224108
     doi.org/10.1063/5.0004608

List of optional additional citations

  1. Neese,F.
     Approximate second-order SCF convergence for spin unrestricted wavefunctions
     Chem. Phys. Lett., 2000 325(1-3)93-98
     doi.org/10.1016/s0009-2614(00)00662-x

Timings for individual modules:

Sum of individual times          ...     7659.752 sec (= 127.663 min)
Startup calculation              ...       14.472 sec (=   0.241 min)   0.2 %
SCF iterations                   ...      457.214 sec (=   7.620 min)   6.0 %
Property integrals               ...     1856.164 sec (=  30.936 min)  24.2 %
SCF Response                     ...     3559.214 sec (=  59.320 min)  46.5 %
Property calculations            ...     1652.811 sec (=  27.547 min)  21.6 %
SCF Gradient evaluation          ...      119.605 sec (=   1.993 min)   1.6 %
Geometry relaxation              ...        0.271 sec (=   0.005 min)   0.0 %
                             ****ORCA TERMINATED NORMALLY****
TOTAL RUN TIME: 0 days 2 hours 7 minutes 41 seconds 157 msec
