
                                 *****************
                                 * O   R   C   A *
                                 *****************

                                            #,                                       
                                            ###                                      
                                            ####                                     
                                            #####                                    
                                            ######                                   
                                           ########,                                 
                                     ,,################,,,,,                         
                               ,,#################################,,                 
                          ,,##########################################,,             
                       ,#########################################, ''#####,          
                    ,#############################################,,   '####,        
                  ,##################################################,,,,####,       
                ,###########''''           ''''###############################       
              ,#####''   ,,,,##########,,,,          '''####'''          '####       
            ,##' ,,,,###########################,,,                        '##       
           ' ,,###''''                  '''############,,,                           
         ,,##''                                '''############,,,,        ,,,,,,###''
      ,#''                                            '''#######################'''  
     '                                                          ''''####''''         
             ,#######,   #######,   ,#######,      ##                                
            ,#'     '#,  ##    ##  ,#'     '#,    #''#        ,####,   ,####,        
            ##       ##  ##   ,#'  ##            #'  '#       #'       #'  '#        
            ##       ##  #######   ##           ,######,      #####,   #    #        
            '#,     ,#'  ##    ##  '#,     ,#' ,#      #,     #,   #   #,  ,#        
             '#######'   ##     ##  '#######'  #'      '#     '####' # '####'        



                #########################################################
                #                        -***-                          #
                #          Department of theory and spectroscopy        #
                #                                                       #
                #                      Frank Neese                      #
                #                                                       #
                #     Directorship, Architecture, Infrastructure        #
                #                    SHARK, DRIVERS                     #
                #        Core code/Algorithms in most modules           #
                #                                                       #
                #        Max Planck Institute fuer Kohlenforschung      #
                #                Kaiser Wilhelm Platz 1                 #
                #                 D-45470 Muelheim/Ruhr                 #
                #                      Germany                          #
                #                                                       #
                #                  All rights reserved                  #
                #                        -***-                          #
                #########################################################


                         Program Version 6.0.1  -  RELEASE   -


 With contributions from (in alphabetic order):
[Max-Planck-Institut fuer Kohlenforschung]                               
  Daniel Aravena         : Magnetic Suceptibility                        
  Michael Atanasov       : Ab Initio Ligand Field Theory (pilot matlab implementation)
  Alexander A. Auer      : GIAO ZORA, VPT2 properties, NMR spectrum      
  Ute Becker             : All parallelization in ORCA, NUMFREQ, NUMCALC 
  Giovanni Bistoni       : ED, misc. LED, open-shell LED, HFLD           
  Martin Brehm           : Molecular dynamics                            
  Dmytro Bykov           : pre 5.0 version of the SCF Hessian            
  Marcos Casanova-Páez   : Triplet and SCS-CIS(D). UHF-(DLPNO)-IP/EA/STEOM-CCSD. UHF-CVS-IP/STEOM-CCSD   
  Vijay G. Chilkuri      : MRCI spin determinant printing, contributions to CSF-ICE 
  Pauline Colinet        : FMM embedding                                 
  Dipayan Datta          : RHF DLPNO-CCSD density                        
  Achintya Kumar Dutta   : EOM-CC, STEOM-CC                              
  Nicolas Foglia         : Exact transition moments, OPA infrastructure, MCD improvements    
  Dmitry Ganyushin       : Spin-Orbit,Spin-Spin,Magnetic field MRCI      
  Miquel Garcia-Rates    : C-PCM and meta-GGA Hessian, CCSD/C-PCM, Gaussian charge scheme 
  Tiago L. C. Gouveia    : GS-ROHF, GS-ROCIS                             
  Yang Guo               : DLPNO-NEVPT2, F12-NEVPT2, CIM, IAO-localization        
  Andreas Hansen         : Spin unrestricted coupled pair/coupled cluster methods 
  Ingolf Harden          : AUTO-CI MPn and infrastructure                
  Benjamin Helmich-Paris : MC-RPA, TRAH-(SCF,CASSCF), AVAS, COSX integrals, SCF dyn. polar. 
  Lee Huntington         : MR-EOM, pCC                                   
  Robert Izsak           : Overlap fitted RIJCOSX, COSX-SCS-MP3, EOM     
  Riya Kayal             : Wick's Theorem for AUTO-CI, AUTO-CI UHF-CCSDT 
  Emily Kempfer          : AUTO-CI, RHF CISDT and CCSDT                  
  Christian Kollmar      : KDIIS, OOCD, Brueckner-CCSD(T), CCSD density, CASPT2, CASPT2-K, improved NEVPT2 
  Axel Koslowski         : Symmetry handling                             
  Simone Kossmann        : meta-GGA functionals, TD-DFT gradient, OOMP2, (MP2 Hessian; deprecated post 5.0) 
  Lucas Lang             : DCDCAS                                        
  Marvin Lechner         : AUTO-CI (C++ implementation), FIC-MRCC        
  Spencer Leger          : CASSCF response                               
  Dagmar Lenk            : GEPOL surface, SMD, ORCA-2-JSON               
  Dimitrios Liakos       : Extrapolation schemes; Compound Job, initial MDCI parallelization 
  Dimitrios Manganas     : Further ROCIS development; embedding schemes. LFT, Crystal Embedding 
  Dimitrios Pantazis     : SARC Basis sets                               
  Anastasios Papadopoulos: AUTO-CI, single reference methods and gradients 
  Taras Petrenko         : pre 6.0 DFT Hessian and TD-DFT gradient, (ASA, deprecated), ECA, 1-Electron XAS/XES, NRVS 
  Peter Pinski           : DLPNO-MP2, DLPNO-MP2 Gradient                 
  Christoph Reimann      : Effective Core Potentials                     
  Marius Retegan         : Local ZFS, SOC                                
  Christoph Riplinger    : Optimizer, TS searches, QM/MM, DLPNO-CCSD(T), (RO)-DLPNO pert. Triples 
  Michael Roemelt        : Original ROCIS implementation                 
  Masaaki Saitow         : Open-shell DLPNO-CCSD energy and density      
  Barbara Sandhoefer     : DKH picture change effects                    
  Kantharuban Sivalingam : CASSCF convergence/infrastructure, NEVPT2 and variants, FIC-MRCI 
  Bernardo de Souza      : ESD, SOC TD-DFT                               
  Georgi L. Stoychev     : AutoAux, RI-MP2 NMR, DLPNO-MP2 response, X2C  
  Van Anh Tran           : RI-MP2 g-tensors                              
  Willem Van den Heuvel  : Paramagnetic NMR                              
  Zikuan Wang            : NOTCH, Electric field optimization            
  Frank Wennmohs         : Technical directorship and infrastructure     
  Hang Xu                : AUTO-CI-Response properties                   
                                                                         
[FACCTs GmbH]                                                            
  Markus Bursch, Miquel Garcia-Rates, Christoph Riplinger, Bernardo de Souza, Georgi L. Stoychev 
                                                                 
  APM, Basis sets (HGBS, AHGBS, def-TZVP (Ac-Lr), def2-XVPD (La-Lu)), CI-OPT, improved COSX, DLPNO-Multilevel,           
  DOCKER, DRACO, updates on ESD, GOAT, IRC, LR-CPCM, MBIS, meta-GGA TD-DFT gradient, ML-optimized integration grids, 
  MM, NACMEs, nearIR, NEB, NEB-TS, NL-DFT gradient (VV10), 2- and 3-layer-ONIOM, interface openCOSMO-RS, QMMM,   
  Crystal-QMMM, SF, symmetry and pop. for TD-DFT, r2SCAN hybrids, SOLVATOR                                   
                                                                         
[Other institutions]                                                     
  V. Asgeirsson          : NEB                                           
  Christoph Bannwarth    : sTDA-DFT, sTD-DFT, PBEh-3c, B97-3c, D3        
  Sebastian Ehlert       : rSCAN, r2SCAN, r2SCAN-3c, D4, dhf basis sets  
  Marvin Friede          : D4 for Fr, Ra, Ac-Lr                          
  Lars Goerigk           : TD-DFT with DH, B97 family of functionals     
  Stefan Grimme          : VdW corrections, initial TS optimization, DFT functionals, gCP, sTDA/sTD-DF 
  Waldemar Hujo          : DFT-NL                                        
  H. Jonsson             : NEB                                           
  Holger Kruse           : gCP                                           
  Marcel Mueller         : wB97X-3c, vDZP basis set                      
  Hagen Neugebauer       : wr2SCAN                                       
  Tobias Risthaus        : range-separated hybrid DFT                    
  Lukas Wittmann         : regularized MP2, r2SCAN double-hybrids, wr2SCAN        
                                                                         
We gratefully acknowledge several colleagues who have allowed us to      
interface, adapt or use parts of their codes:                            
  Ed Valeev, F. Pavosevic, A. Kumar             : LibInt (2-el integral package), F12 methods 
  Garnet Chan, S. Sharma, J. Yang, R. Olivares  : DMRG                   
  Ulf Ekstrom                                   : XCFun DFT Library      
  Mihaly Kallay                                 : mrcc  (arbitrary order and MRCC methods)
  Frank Weinhold                                : gennbo (NPA and NBO analysis)           
  Simon Mueller                                 : openCOSMO-RS                            
  Christopher J. Cramer and Donald G. Truhlar   : smd solvation model                     
  S Lehtola, MJT Oliveira, MAL Marques          : LibXC Library                           
  Liviu Ungur et al                             : ANISO software                          


 Your calculation uses the libint2 library for the computation of 2-el integrals
 For citations please refer to: http://libint.valeyev.net

 Your ORCA version has been built with support for libXC version: 6.2.2
 For citations please refer to: https://libxc.gitlab.io

 This ORCA versions uses:
   CBLAS   interface :  Fast vector & matrix operations
   LAPACKE interface :  Fast linear algebra routines
   SCALAPACK package :  Parallel linear algebra routines
   Shared memory     :  Shared parallel matrices
   BLAS/LAPACK       :  OpenBLAS 0.3.27  USE64BITINT DYNAMIC_ARCH NO_AFFINITY Zen SINGLE_THREADED
        Core in use  :  Zen
   Copyright (c) 2011-2014, The OpenBLAS Project


================================================================================

----- Orbital basis set information -----
Your calculation utilizes the basis: def2-TZVP(-f)
   F. Weigend and R. Ahlrichs, Phys. Chem. Chem. Phys. 7, 3297 (2005).

----- AuxJ basis set information -----
Your calculation utilizes the auxiliary basis: def2/J
   F. Weigend, Phys. Chem. Chem. Phys. 8, 1057 (2006).

----- AuxC basis set information -----
Your calculation utilizes the auxiliary basis: def2-TZVP/C
  H-La, Hf-Rn : A. Hellweg, C. Hattig, S. Hofener and W. Klopper, Theor. Chem. Acc. 117, 587 (2007).
        Ce-Lu : J. Chmela and M. E. Harding, Mol. Phys. (2018).

================================================================================
                                        WARNINGS
                       Please study these warnings very carefully!
================================================================================


WARNING: Geometry Optimization
  ===> : Switching off AutoStart
         For restart on a previous wavefunction, please use MOREAD

================================================================================
                                       INPUT FILE
================================================================================
NAME = hbq-dcp-gs.inp
|  1> ! B3LYP/G VERYTIGHTOPT FREQ Def2-TZVP(-f) Def2-TZVP/C Def2/J RIJCOSX TightSCF CPCM(Water) AllPop SOSCF
|  2> %pal nprocs 128 end
|  3> 
|  4> 
|  5> * xyz 1 1 
|  6>   C          -3.40789983017556     -0.90355398188559      1.60282578490378
|  7>   C          -3.19871309421709     -1.83448671693778      2.63084900392722
|  8>   C          -1.98521768354698     -1.90509083465546      3.28119915635923
|  9>   C          -2.42363785870259      0.01465317568872      1.28979428863222
| 10>   C          -1.19979102862205      0.05523872250801      2.02067295409906
| 11>   O          -2.47664663857886      0.82996046486653      0.18618348953916
| 12>   C          -0.95401638717457     -1.00438726644353      2.95315580620175
| 13>   C           0.36585953468290     -1.21458123186408      3.47093566702759
| 14>   C           1.41587922688844     -0.48839708759458      3.01693470091793
| 15>   C          -0.13063847729193      0.99256355610938      1.79150125878023
| 16>   C           1.19754524997019      0.63165382492572      2.15211669847862
| 17>   N          -0.30631732443024      2.25610051824666      1.23142513853946
| 18>   C           0.75090118830995      2.94913088209030      0.73703281213103
| 19>   C           2.04933569421665      2.50073589026807      0.86972217251533
| 20>   C           2.27403876513763      1.38760842272594      1.66032534236263
| 21>   C          -3.66956469212635      1.08641948473604     -0.49838513346399
| 22>   O          -4.73070189426090      1.20921167923733      0.08045799013310
| 23>   N          -3.45090911651832      1.21565907625473     -1.81790515398497
| 24>   C          -2.17306801161160      0.98991069901240     -2.49120125132686
| 25>   C          -4.57023899952387      1.56611215316529     -2.68881998622943
| 26>   H          -4.80406014878987      0.72966031082052     -3.35339776688596
| 27>   H          -4.30340898996994      2.43253300854230     -3.29833305395192
| 28>   H          -5.44261946738825      1.80199090638010     -2.08738851415126
| 29>   H          -1.84752369710853      1.91047337391043     -2.98254409954669
| 30>   H          -2.29619039299969      0.21448975418537     -3.25193442377395
| 31>   H          -1.41538345875711      0.67633530278157     -1.78272148828788
| 32>   H          -1.79317329292149     -2.67895196944273      4.01576330902378
| 33>   H          -4.33100602465274     -0.92043808845204      1.04289753329171
| 34>   H          -3.98852574320945     -2.53765712397662      2.87075852794070
| 35>   H           0.51719498727402     -2.02724779593931      4.17272418975957
| 36>   H           2.43304782068234     -0.71396007171259      3.31601506805264
| 37>   H           0.52717135961656      3.90274176360886      0.28140418088020
| 38>   H           2.85822981295547      3.07476246724939      0.43857282459091
| 39>   H           3.28551093388310      1.08181679650062      1.90441026015648
| 40>   P          -1.73387751110939      3.30354919019497      1.61620304318988
| 41>   O          -2.70277519372350      2.61970101305722      2.48859628071554
| 42>   O          -2.08771326660328      3.74957211587656      0.14842036348208
| 43>   O          -1.03954343020234      4.58796998778441      2.23296381890053
| 44>   C          -2.92456628757802      4.93350608909519     -0.15372638105650
| 45>   C          -0.99680184545984      4.90339264731992      3.67406178606294
| 46>   C          -2.73253958104748      5.26394036860151     -1.61334426864663
| 47>   H          -2.60329449491593      5.74674775073252      0.49608107323356
| 48>   H          -3.95413252108813      4.66253731390887      0.07861486457058
| 49>   H          -1.69243663815870      5.52039826881124     -1.82436708043946
| 50>   H          -3.35724100833088      6.12446241003280     -1.86667756332265
| 51>   H          -3.02898849188971      4.42704785852046     -2.24799197271646
| 52>   C           0.31275919201997      4.46065723674921      4.28749854434244
| 53>   H          -1.85780030857926      4.43692266195761      4.15086411769254
| 54>   H          -1.11604519826817      5.98477138600259      3.70308832787970
| 55>   H           0.33998535339164      4.78295874261152      5.33203299634662
| 56>   H           1.16138476131828      4.91198618694323      3.76948026484970
| 57>   H           0.42185412187820      3.37392872294585      4.26600449846350
| 58> *
| 59> 
| 60>                          ****END OF INPUT****
================================================================================

                       *****************************
                       * Geometry Optimization Run *
                       *****************************

Geometry optimization settings:
Update method            Update   .... BFGS
Choice of coordinates    CoordSys .... (2022) Redundant Internals
Initial Hessian          InHess   .... Almloef's Model
Max. no of cycles        MaxIter  .... 156

Convergence Tolerances:
Energy Change            TolE     ....  2.0000e-07 Eh
Max. Gradient            TolMAXG  ....  3.0000e-05 Eh/bohr
RMS Gradient             TolRMSG  ....  8.0000e-06 Eh/bohr
Max. Displacement        TolMAXD  ....  2.0000e-04 bohr
RMS Displacement         TolRMSD  ....  1.0000e-04 bohr
Strict Convergence                .... False

------------------------------------------------------------------------------
                        ORCA OPTIMIZATION COORDINATE SETUP
------------------------------------------------------------------------------

The optimization will be done in redundant internal coordinates (2022)
Making redundant internal coordinates   ...  (2022 redundants) done
Evaluating the initial hessian          ...  (Almloef) done
Evaluating the coordinates              ...  done
Calculating the B-matrix                .... done
Calculating the G-matrix                .... done
Diagonalizing the G-matrix              .... done
Small eigenvalue found = 1.745e-03
Small eigenvalue found = 5.033e-03
Small eigenvalue found = 5.541e-03
Small eigenvalue found = 7.228e-03
Small eigenvalue found = 9.959e-03
Small eigenvalue found = 1.236e-02
Small eigenvalue found = 1.797e-02
Small eigenvalue found = 2.001e-02
Small eigenvalue found = 2.506e-02
The first mode is                       ....  109
The number of degrees of freedom        ....  150

    -----------------------------------------------------------------
                    Redundant Internal Coordinates


    -----------------------------------------------------------------
         Definition                    Initial Value    Approx d2E/dq
    -----------------------------------------------------------------
      1. B(C   1,C   0)                  1.4026         0.596582   
      2. B(C   2,C   1)                  1.3786         0.651541   
      3. B(C   3,C   0)                  1.3820         0.643482   
      4. B(C   4,C   3)                  1.4261         0.547288   
      5. B(O   5,C   3)                  1.3731         0.595369   
      6. B(C   6,C   4)                  1.4327         0.534015   
      7. B(C   6,C   2)                  1.4079         0.584977   
      8. B(C   7,C   6)                  1.4333         0.532912   
      9. B(C   8,C   7)                  1.3550         0.710547   
     10. B(C   9,C   4)                  1.4402         0.519569   
     11. B(C  10,C   9)                  1.4228         0.553862   
     12. B(C  10,C   8)                  1.4318         0.535828   
     13. B(N  11,C   9)                  1.3932         0.553008   
     14. B(C  12,N  11)                  1.3574         0.630886   
     15. B(C  13,C  12)                  1.3801         0.648006   
     16. B(C  14,C  13)                  1.3837         0.639449   
     17. B(C  14,C  10)                  1.4043         0.592739   
     18. B(C  15,O   5)                  1.3991         0.541215   
     19. B(O  16,C  15)                  1.2150         1.064453   
     20. B(N  17,C  15)                  1.3437         0.663247   
     21. B(C  18,N  17)                  1.4619         0.429689   
     22. B(C  19,N  17)                  1.4609         0.431290   
     23. B(H  20,C  19)                  1.0936         0.355353   
     24. B(H  21,C  19)                  1.0924         0.356908   
     25. B(H  22,C  19)                  1.0855         0.366043   
     26. B(H  23,C  18)                  1.0931         0.356043   
     27. B(H  24,C  18)                  1.0932         0.355852   
     28. B(H  25,C  18)                  1.0837         0.368560   
     29. B(H  26,C   2)                  1.0841         0.367957   
     30. B(H  27,C   0)                  1.0798         0.373874   
     31. B(H  28,C   1)                  1.0843         0.367656   
     32. B(H  29,C   7)                  1.0844         0.367639   
     33. B(H  30,C   8)                  1.0840         0.368185   
     34. B(H  31,C  12)                  1.0803         0.373177   
     35. B(H  32,C  13)                  1.0815         0.371482   
     36. B(H  33,C  14)                  1.0845         0.367436   
     37. B(P  34,N  11)                  1.8119         0.399199   
     38. B(O  35,P  34)                  1.4722         1.390484   
     39. B(O  36,P  34)                  1.5743         0.955606   
     40. B(O  37,P  34)                  1.5850         0.918875   
     41. B(C  38,O  36)                  1.4810         0.400604   
     42. B(C  39,O  37)                  1.4758         0.408258   
     43. B(C  40,C  38)                  1.5088         0.403799   
     44. B(H  41,C  38)                  1.0894         0.360873   
     45. B(H  42,C  38)                  1.0897         0.360517   
     46. B(H  43,C  40)                  1.0918         0.357674   
     47. B(H  44,C  40)                  1.0931         0.355986   
     48. B(H  45,H  21)                  2.5895         0.000279   
     49. B(H  45,C  40)                  1.0914         0.358316   
     50. B(C  46,C  39)                  1.5124         0.398567   
     51. B(H  47,C  39)                  1.0892         0.361223   
     52. B(H  48,C  39)                  1.0883         0.362329   
     53. B(H  49,C  46)                  1.0935         0.355542   
     54. B(H  50,C  46)                  1.0919         0.357619   
     55. B(H  51,C  46)                  1.0924         0.356936   
     56. A(C   1,C   0,C   3)          120.0523         0.433962   
     57. A(C   1,C   0,H  27)          119.8151         0.352851   
     58. A(C   3,C   0,H  27)          120.1193         0.357410   
     59. A(C   0,C   1,C   2)          120.7336         0.434935   
     60. A(C   0,C   1,H  28)          118.9432         0.351852   
     61. A(C   2,C   1,H  28)          120.2360         0.357147   
     62. A(C   1,C   2,H  26)          120.8056         0.357197   
     63. A(C   6,C   2,H  26)          118.9980         0.350734   
     64. A(C   1,C   2,C   6)          120.1346         0.433401   
     65. A(C   4,C   3,O   5)          115.3503         0.418661   
     66. A(C   0,C   3,O   5)          123.3023         0.430966   
     67. A(C   0,C   3,C   4)          120.9335         0.427294   
     68. A(C   6,C   4,C   9)          117.2297         0.409520   
     69. A(C   3,C   4,C   9)          125.0343         0.411306   
     70. A(C   3,C   4,C   6)          117.3701         0.413313   
     71. A(C   3,O   5,C  15)          122.3445         0.415123   
     72. A(C   4,C   6,C   7)          120.1021         0.411365   
     73. A(C   2,C   6,C   7)          119.7672         0.418085   
     74. A(C   2,C   6,C   4)          119.9432         0.418239   
     75. A(C   6,C   7,H  29)          118.1786         0.345220   
     76. A(C   6,C   7,C   8)          120.9285         0.432893   
     77. A(C   8,C   7,H  29)          120.6870         0.362458   
     78. A(C  10,C   8,H  30)          118.1985         0.345622   
     79. A(C   7,C   8,H  30)          121.5478         0.362550   
     80. A(C   7,C   8,C  10)          120.2283         0.433318   
     81. A(C   4,C   9,C  10)          119.1812         0.412179   
     82. A(C  10,C   9,N  11)          116.7210         0.414076   
     83. A(C   4,C   9,N  11)          124.0977         0.409407   
     84. A(C   9,C  10,C  14)          119.3582         0.421961   
     85. A(C   8,C  10,C  14)          121.0455         0.419476   
     86. A(C   8,C  10,C   9)          119.5947         0.414441   
     87. A(C   9,N  11,P  34)          122.5645         0.414284   
     88. A(C   9,N  11,C  12)          120.7474         0.421045   
     89. A(C  12,N  11,P  34)          113.3186         0.424130   
     90. A(N  11,C  12,H  31)          116.2963         0.353901   
     91. A(N  11,C  12,C  13)          122.1337         0.436030   
     92. A(C  13,C  12,H  31)          121.4806         0.357722   
     93. A(C  12,C  13,H  32)          119.5314         0.357445   
     94. A(C  12,C  13,C  14)          117.9758         0.439979   
     95. A(C  14,C  13,H  32)          122.2281         0.356639   
     96. A(C  10,C  14,H  33)          118.9684         0.351432   
     97. A(C  10,C  14,C  13)          120.5740         0.432968   
     98. A(C  13,C  14,H  33)          120.4564         0.355976   
     99. A(O  16,C  15,N  17)          126.8868         0.478478   
    100. A(O   5,C  15,N  17)          111.0610         0.423191   
    101. A(O   5,C  15,O  16)          122.0118         0.460960   
    102. A(C  18,N  17,C  19)          115.6076         0.376745   
    103. A(C  15,N  17,C  19)          118.9340         0.406452   
    104. A(C  15,N  17,C  18)          125.4252         0.406185   
    105. A(N  17,C  18,H  25)          110.7768         0.331163   
    106. A(H  23,C  18,H  24)          108.5479         0.289783   
    107. A(H  23,C  18,H  25)          109.2283         0.291384   
    108. A(N  17,C  18,H  24)          109.3642         0.329247   
    109. A(N  17,C  18,H  23)          109.7123         0.329276   
    110. A(H  24,C  18,H  25)          109.1738         0.291359   
    111. A(H  21,C  19,H  22)          109.4556         0.291181   
    112. A(H  20,C  19,H  22)          109.3329         0.290981   
    113. A(N  17,C  19,H  22)          109.7293         0.330991   
    114. A(H  20,C  19,H  21)          108.6498         0.289829   
    115. A(N  17,C  19,H  21)          109.6172         0.329611   
    116. A(N  17,C  19,H  20)          110.0362         0.329373   
    117. A(N  11,P  34,O  36)           98.2137         0.489020   
    118. A(N  11,P  34,O  35)          112.0750         0.524461   
    119. A(O  36,P  34,O  37)          103.3949         0.572093   
    120. A(O  35,P  34,O  37)          115.7296         0.614894   
    121. A(N  11,P  34,O  37)          101.8852         0.485487   
    122. A(O  35,P  34,O  36)          122.4214         0.619580   
    123. A(P  34,O  36,C  38)          122.9355         0.457446   
    124. A(P  34,O  37,C  39)          124.4611         0.455759   
    125. A(H  41,C  38,H  42)          109.6992         0.290990   
    126. A(C  40,C  38,H  42)          112.3939         0.328562   
    127. A(O  36,C  38,H  42)          106.9537         0.326164   
    128. A(C  40,C  38,H  41)          112.0865         0.328615   
    129. A(O  36,C  38,H  41)          107.9649         0.326217   
    130. A(O  36,C  38,C  40)          107.4891         0.370341   
    131. A(C  46,C  39,H  48)          112.0200         0.328127   
    132. A(O  37,C  39,H  48)          103.6053         0.327452   
    133. A(C  46,C  39,H  47)          112.4308         0.327962   
    134. A(O  37,C  39,H  47)          108.2426         0.327288   
    135. A(O  37,C  39,C  46)          111.0128         0.370716   
    136. A(H  47,C  39,H  48)          109.1029         0.291264   
    137. A(H  44,C  40,H  45)          108.2801         0.290089   
    138. A(H  43,C  40,H  45)          109.0559         0.290304   
    139. A(C  38,C  40,H  45)          111.1033         0.328230   
    140. A(H  43,C  40,H  44)          108.3430         0.290007   
    141. A(C  38,C  40,H  44)          108.8966         0.327877   
    142. A(C  38,C  40,H  43)          111.0786         0.328133   
    143. A(H  50,C  46,H  51)          108.9201         0.290122   
    144. A(H  49,C  46,H  51)          108.0309         0.289857   
    145. A(C  39,C  46,H  51)          111.6981         0.327317   
    146. A(H  49,C  46,H  50)          108.1803         0.289944   
    147. A(C  39,C  46,H  50)          111.0726         0.327420   
    148. A(C  39,C  46,H  49)          108.8284         0.327106   
    149. D(C   2,C   1,C   0,C   3)     -4.2427         0.024521   
    150. D(H  28,C   1,C   0,H  27)     -2.1827         0.024521   
    151. D(C   2,C   1,C   0,H  27)    174.4289         0.024521   
    152. D(H  28,C   1,C   0,C   3)    179.1457         0.024521   
    153. D(C   6,C   2,C   1,H  28)    178.9999         0.029567   
    154. D(H  26,C   2,C   1,C   0)   -174.6809         0.029567   
    155. D(C   6,C   2,C   1,C   0)      2.4321         0.029567   
    156. D(H  26,C   2,C   1,H  28)      1.8870         0.029567   
    157. D(C   4,C   3,C   0,H  27)    179.7910         0.028790   
    158. D(O   5,C   3,C   0,C   1)    170.7274         0.028790   
    159. D(O   5,C   3,C   0,H  27)     -7.9401         0.028790   
    160. D(C   4,C   3,C   0,C   1)     -1.5414         0.028790   
    161. D(C   6,C   4,C   3,O   5)   -164.1447         0.020483   
    162. D(C   9,C   4,C   3,C   0)   -178.4502         0.020483   
    163. D(C   6,C   4,C   3,C   0)      8.7084         0.020483   
    164. D(C   9,C   4,C   3,O   5)      8.6967         0.020483   
    165. D(C  15,O   5,C   3,C   4)   -168.5232         0.025863   
    166. D(C  15,O   5,C   3,C   0)     18.8127         0.025863   
    167. D(C   7,C   6,C   4,C   9)     -8.8146         0.019473   
    168. D(C   2,C   6,C   4,C   9)    176.1728         0.019473   
    169. D(C   2,C   6,C   4,C   3)    -10.4166         0.019473   
    170. D(C   7,C   6,C   4,C   3)    164.5960         0.019473   
    171. D(C   7,C   6,C   2,H  26)      7.1905         0.023529   
    172. D(C   4,C   6,C   2,H  26)   -177.7801         0.023529   
    173. D(C   4,C   6,C   2,C   1)      5.0550         0.023529   
    174. D(C   7,C   6,C   2,C   1)   -169.9744         0.023529   
    175. D(H  29,C   7,C   6,C   4)   -179.8346         0.019390   
    176. D(H  29,C   7,C   6,C   2)     -4.8133         0.019390   
    177. D(C   8,C   7,C   6,C   4)     -5.0131         0.019390   
    178. D(C   8,C   7,C   6,C   2)    170.0083         0.019390   
    179. D(C  10,C   8,C   7,C   6)      8.9770         0.035650   
    180. D(H  30,C   8,C   7,H  29)      1.8031         0.035650   
    181. D(H  30,C   8,C   7,C   6)   -172.8886         0.035650   
    182. D(C  10,C   8,C   7,H  29)   -176.3314         0.035650   
    183. D(N  11,C   9,C   4,C   6)   -161.3126         0.018409   
    184. D(N  11,C   9,C   4,C   3)     25.8369         0.018409   
    185. D(C  10,C   9,C   4,C   6)     18.5977         0.018409   
    186. D(C  10,C   9,C   4,C   3)   -154.2528         0.018409   
    187. D(C  14,C  10,C   9,N  11)    -14.7729         0.020996   
    188. D(C  14,C  10,C   9,C   4)    165.3103         0.020996   
    189. D(C   8,C  10,C   9,N  11)    164.7742         0.020996   
    190. D(C   8,C  10,C   9,C   4)    -15.1425         0.020996   
    191. D(C  14,C  10,C   8,H  30)      2.4748         0.019609   
    192. D(C  14,C  10,C   8,C   7)   -179.3291         0.019609   
    193. D(C   9,C  10,C   8,H  30)   -177.0645         0.019609   
    194. D(C   9,C  10,C   8,C   7)      1.1316         0.019609   
    195. D(P  34,N  11,C   9,C  10)   -141.1500         0.024389   
    196. D(P  34,N  11,C   9,C   4)     38.7623         0.024389   
    197. D(C  12,N  11,C   9,C  10)     16.7347         0.024389   
    198. D(C  12,N  11,C   9,C   4)   -163.3531         0.024389   
    199. D(H  31,C  12,N  11,P  34)    -22.7455         0.032319   
    200. D(H  31,C  12,N  11,C   9)    177.4673         0.032319   
    201. D(C  13,C  12,N  11,P  34)    153.8619         0.032319   
    202. D(C  13,C  12,N  11,C   9)     -5.9254         0.032319   
    203. D(H  32,C  13,C  12,H  31)     -5.0412         0.029225   
    204. D(H  32,C  13,C  12,N  11)    178.5255         0.029225   
    205. D(C  14,C  13,C  12,H  31)    169.1825         0.029225   
    206. D(C  14,C  13,C  12,N  11)     -7.2508         0.029225   
    207. D(C  10,C  14,C  13,C  12)      8.8827         0.028406   
    208. D(H  33,C  14,C  10,C   9)   -177.4071         0.024190   
    209. D(H  33,C  14,C  10,C   8)      3.0526         0.024190   
    210. D(C  13,C  14,C  10,C   9)      2.1990         0.024190   
    211. D(C  13,C  14,C  10,C   8)   -177.3413         0.024190   
    212. D(H  33,C  14,C  13,H  32)      2.5411         0.028406   
    213. D(H  33,C  14,C  13,C  12)   -171.5171         0.028406   
    214. D(C  10,C  14,C  13,H  32)   -177.0591         0.028406   
    215. D(N  17,C  15,O   5,C   3)   -145.2498         0.021155   
    216. D(O  16,C  15,O   5,C   3)     36.9113         0.021155   
    217. D(C  19,N  17,C  15,O  16)      1.3189         0.036029   
    218. D(C  19,N  17,C  15,O   5)   -176.3900         0.036029   
    219. D(C  18,N  17,C  15,O  16)   -176.4878         0.036029   
    220. D(C  18,N  17,C  15,O   5)      5.8033         0.036029   
    221. D(H  25,C  18,N  17,C  15)      1.3765         0.015741   
    222. D(H  24,C  18,N  17,C  19)    -56.1182         0.015741   
    223. D(H  24,C  18,N  17,C  15)    121.7532         0.015741   
    224. D(H  23,C  18,N  17,C  19)     62.8343         0.015741   
    225. D(H  23,C  18,N  17,C  15)   -119.2943         0.015741   
    226. D(H  22,C  19,N  17,C  15)      7.2378         0.015859   
    227. D(H  21,C  19,N  17,C  18)    -54.5138         0.015859   
    228. D(H  21,C  19,N  17,C  15)    127.4680         0.015859   
    229. D(H  20,C  19,N  17,C  18)     64.9149         0.015859   
    230. D(H  20,C  19,N  17,C  15)   -113.1032         0.015859   
    231. D(O  37,P  34,N  11,C   9)    120.0040         0.003957   
    232. D(O  36,P  34,N  11,C  12)     66.2726         0.003957   
    233. D(O  36,P  34,N  11,C   9)   -134.3573         0.003957   
    234. D(O  35,P  34,N  11,C  12)   -163.7047         0.003957   
    235. D(O  35,P  34,N  11,C   9)     -4.3347         0.003957   
    236. D(C  38,O  36,P  34,O  37)    -56.8175         0.015698   
    237. D(C  38,O  36,P  34,O  35)     76.0201         0.015698   
    238. D(C  38,O  36,P  34,N  11)   -161.1932         0.015698   
    239. D(C  39,O  37,P  34,O  36)    154.7174         0.014548   
    240. D(C  39,O  37,P  34,O  35)     18.1192         0.014548   
    241. D(C  39,O  37,P  34,N  11)   -103.7341         0.014548   
    242. D(H  42,C  38,O  36,P  34)    -74.4345         0.012675   
    243. D(H  41,C  38,O  36,P  34)     43.5546         0.012675   
    244. D(C  40,C  38,O  36,P  34)    164.6591         0.012675   
    245. D(H  48,C  39,O  37,P  34)   -142.3468         0.013150   
    246. D(H  47,C  39,O  37,P  34)    -26.6057         0.013150   
    247. D(C  46,C  39,O  37,P  34)     97.2421         0.013150   
    248. D(H  44,C  40,C  38,H  42)     61.4426         0.012928   
    249. D(H  44,C  40,C  38,H  41)    -62.6581         0.012928   
    250. D(H  44,C  40,C  38,O  36)    178.8620         0.012928   
    251. D(H  43,C  40,C  38,H  42)   -179.3202         0.012928   
    252. D(H  43,C  40,C  38,H  41)     56.5791         0.012928   
    253. D(H  43,C  40,C  38,O  36)    -61.9008         0.012928   
    254. D(H  50,C  46,C  39,H  48)    -58.8320         0.012607   
    255. D(H  50,C  46,C  39,H  47)    177.8791         0.012607   
    256. D(H  50,C  46,C  39,O  37)     56.4560         0.012607   
    257. D(H  49,C  46,C  39,H  48)     60.1581         0.012607   
    258. D(H  49,C  46,C  39,H  47)    -63.1308         0.012607   
    259. D(H  49,C  46,C  39,O  37)    175.4461         0.012607   
    -----------------------------------------------------------------

Number of atoms                         .... 52
Number of degrees of freedom            .... 259


         *************************************************************
         *                GEOMETRY OPTIMIZATION CYCLE   1            *
         *************************************************************
---------------------------------
CARTESIAN COORDINATES (ANGSTROEM)
---------------------------------
  C     -3.407900   -0.903554    1.602826
  C     -3.198713   -1.834487    2.630849
  C     -1.985218   -1.905091    3.281199
  C     -2.423638    0.014653    1.289794
  C     -1.199791    0.055239    2.020673
  O     -2.476647    0.829960    0.186183
  C     -0.954016   -1.004387    2.953156
  C      0.365860   -1.214581    3.470936
  C      1.415879   -0.488397    3.016935
  C     -0.130638    0.992564    1.791501
  C      1.197545    0.631654    2.152117
  N     -0.306317    2.256101    1.231425
  C      0.750901    2.949131    0.737033
  C      2.049336    2.500736    0.869722
  C      2.274039    1.387608    1.660325
  C     -3.669565    1.086419   -0.498385
  O     -4.730702    1.209212    0.080458
  N     -3.450909    1.215659   -1.817905
  C     -2.173068    0.989911   -2.491201
  C     -4.570239    1.566112   -2.688820
  H     -4.804060    0.729660   -3.353398
  H     -4.303409    2.432533   -3.298333
  H     -5.442619    1.801991   -2.087389
  H     -1.847524    1.910473   -2.982544
  H     -2.296190    0.214490   -3.251934
  H     -1.415383    0.676335   -1.782721
  H     -1.793173   -2.678952    4.015763
  H     -4.331006   -0.920438    1.042898
  H     -3.988526   -2.537657    2.870759
  H      0.517195   -2.027248    4.172724
  H      2.433048   -0.713960    3.316015
  H      0.527171    3.902742    0.281404
  H      2.858230    3.074762    0.438573
  H      3.285511    1.081817    1.904410
  P     -1.733878    3.303549    1.616203
  O     -2.702775    2.619701    2.488596
  O     -2.087713    3.749572    0.148420
  O     -1.039543    4.587970    2.232964
  C     -2.924566    4.933506   -0.153726
  C     -0.996802    4.903393    3.674062
  C     -2.732540    5.263940   -1.613344
  H     -2.603294    5.746748    0.496081
  H     -3.954133    4.662537    0.078615
  H     -1.692437    5.520398   -1.824367
  H     -3.357241    6.124462   -1.866678
  H     -3.028988    4.427048   -2.247992
  C      0.312759    4.460657    4.287499
  H     -1.857800    4.436923    4.150864
  H     -1.116045    5.984771    3.703088
  H      0.339985    4.782959    5.332033
  H      1.161385    4.911986    3.769480
  H      0.421854    3.373929    4.266004

----------------------------
CARTESIAN COORDINATES (A.U.)
----------------------------
  NO LB      ZA    FRAG     MASS         X           Y           Z
   0 C     6.0000    0    12.011   -6.439997   -1.707470    3.028902
   1 C     6.0000    0    12.011   -6.044692   -3.466677    4.971584
   2 C     6.0000    0    12.011   -3.751518   -3.600100    6.200568
   3 C     6.0000    0    12.011   -4.580012    0.027690    2.437358
   4 C     6.0000    0    12.011   -2.267276    0.104386    3.818518
   5 O     8.0000    0    15.999   -4.680184    1.568398    0.351836
   6 C     6.0000    0    12.011   -1.802830   -1.898017    5.580656
   7 C     6.0000    0    12.011    0.691374   -2.295226    6.559118
   8 C     6.0000    0    12.011    2.675624   -0.922937    5.701180
   9 C     6.0000    0    12.011   -0.246871    1.875673    3.385447
  10 C     6.0000    0    12.011    2.263033    1.193653    4.066911
  11 N     7.0000    0    14.007   -0.578856    4.263412    2.327056
  12 C     6.0000    0    12.011    1.418998    5.573050    1.392790
  13 C     6.0000    0    12.011    3.872683    4.725706    1.643537
  14 C     6.0000    0    12.011    4.297310    2.622200    3.137560
  15 C     6.0000    0    12.011   -6.934472    2.053035   -0.941811
  16 O     8.0000    0    15.999   -8.939731    2.285079    0.152044
  17 N     7.0000    0    14.007   -6.521273    2.297263   -3.435343
  18 C     6.0000    0    12.011   -4.106503    1.870660   -4.707688
  19 C     6.0000    0    12.011   -8.636500    2.959523   -5.081133
  20 H     1.0000    0     1.008   -9.078358    1.378858   -6.337003
  21 H     1.0000    0     1.008   -8.132264    4.596821   -6.232946
  22 H     1.0000    0     1.008  -10.285060    3.405269   -3.944593
  23 H     1.0000    0     1.008   -3.491314    3.610271   -5.636192
  24 H     1.0000    0     1.008   -4.339171    0.405327   -6.145265
  25 H     1.0000    0     1.008   -2.674687    1.278088   -3.368855
  26 H     1.0000    0     1.008   -3.388606   -5.062486    7.588693
  27 H     1.0000    0     1.008   -8.184415   -1.739376    1.970791
  28 H     1.0000    0     1.008   -7.537221   -4.795477    5.424947
  29 H     1.0000    0     1.008    0.977357   -3.830943    7.885306
  30 H     1.0000    0     1.008    4.597794   -1.349189    6.266360
  31 H     1.0000    0     1.008    0.996209    7.375113    0.531777
  32 H     1.0000    0     1.008    5.401272    5.810459    0.828783
  33 H     1.0000    0     1.008    6.208716    2.044337    3.598814
  34 P    15.0000    0    30.974   -3.276554    6.242803    3.054181
  35 O     8.0000    0    15.999   -5.107505    4.950517    4.702765
  36 O     8.0000    0    15.999   -3.945206    7.085664    0.280474
  37 O     8.0000    0    15.999   -1.964452    8.670007    4.219690
  38 C     6.0000    0    12.011   -5.526629    9.322975   -0.290501
  39 C     6.0000    0    12.011   -1.883682    9.266069    6.942971
  40 C     6.0000    0    12.011   -5.163751    9.947406   -3.048779
  41 H     1.0000    0     1.008   -4.919514   10.859779    0.937457
  42 H     1.0000    0     1.008   -7.472228    8.810919    0.148561
  43 H     1.0000    0     1.008   -3.198242   10.432041   -3.447554
  44 H     1.0000    0     1.008   -6.344266   11.573557   -3.527509
  45 H     1.0000    0     1.008   -5.723959    8.365908   -4.248089
  46 C     6.0000    0    12.011    0.591029    8.429421    8.102198
  47 H     1.0000    0     1.008   -3.510734    8.384569    7.843996
  48 H     1.0000    0     1.008   -2.109020   11.309579    6.997823
  49 H     1.0000    0     1.008    0.642479    9.038482   10.076082
  50 H     1.0000    0     1.008    2.194699    9.282309    7.123285
  51 H     1.0000    0     1.008    0.797189    6.375801    8.061580

--------------------------------
INTERNAL COORDINATES (ANGSTROEM)
--------------------------------
 C      0   0   0     0.000000000000     0.00000000     0.00000000
 C      1   0   0     1.402578549153     0.00000000     0.00000000
 C      2   1   0     1.378590357548   120.73355997     0.00000000
 C      1   2   3     1.381978556406   120.05228574   355.75733748
 C      4   1   2     1.426054653140   120.93349887   358.45855028
 O      4   1   2     1.373132441684   123.30231082   170.72740289
 C      3   2   1     1.407925946566   120.13456261     2.43209467
 C      7   3   2     1.433300365058   119.76719350   190.02558589
 C      8   7   3     1.354991381019   120.92854840   170.00831335
 C      5   4   1     1.440203002232   125.03433993   181.54980851
 C     10   5   4     1.422804042297   119.18117628   205.74716596
 N     10   5   4     1.393224308029   124.09772598    25.83693034
 C     12  10   5     1.357359879067   120.74739358   196.64693971
 C     13  12  10     1.380071266703   122.13368858   354.07464097
 C     14  13  12     1.383689850093   117.97584656   352.74920882
 C      6   4   1     1.399092173859   122.34447896    18.81266340
 O     16   6   4     1.214968907635   122.01184264    36.91126092
 N     16   6   4     1.343743359915   111.06103372   214.75021054
 C     18  16   6     1.461905555743   125.42520164     5.80327561
 C     18  16   6     1.460893353783   118.93398304   183.60998522
 H     20  18  16     1.093612198610   110.03617498   246.89677943
 H     20  18  16     1.092423696354   109.61718810   127.46804011
 H     20  18  16     1.085544233339   109.72928357     7.23782105
 H     19  18  16     1.093083955430   109.71234965   240.70574044
 H     19  18  16     1.093229949341   109.36421115   121.75320703
 H     19  18  16     1.083678451106   110.77678418     1.37650456
 H      3   2   1     1.084124807522   120.80561663   185.31914872
 H      1   2   3     1.079782277262   119.81508535   174.42894342
 H      2   1   3     1.084347371259   118.94316669   183.38840508
 H      8   7   3     1.084359946796   118.17861911   355.18673284
 H      9   8   7     1.083955568282   121.54777772   187.11144675
 H     13  12  10     1.080289868143   116.29630953   177.46730953
 H     14  13  12     1.081529457124   119.53136776   178.52550764
 H     15  14  13     1.084509987926   120.45637400   188.48293028
 P     12  10   5     1.811941180851   122.56451336    38.76229994
 O     35  12  10     1.472236736952   112.07504247   355.66534170
 O     35  12  10     1.574332298770    98.21369130   225.64267793
 O     35  12  10     1.585001721023   101.88518054   120.00400463
 C     37  35  12     1.480984566730   122.93545519   198.80675565
 C     38  35  12     1.475832527143   124.46105208   256.26593452
 C     39  37  35     1.508822536572   107.48905874   164.65905529
 H     39  37  35     1.089416032851   107.96488023    43.55456673
 H     39  37  35     1.089684890567   106.95374573   285.56551507
 H     41  39  37     1.091840379123   111.07861601   298.09916195
 H     41  39  37     1.093127538410   108.89661996   178.86200896
 H     41  39  37     1.091351794084   111.10328542    59.68739948
 C     40  38  35     1.512372113954   111.01282164    97.24208229
 H     40  38  35     1.089152452224   108.24255569   333.39427598
 H     40  38  35     1.088320492224   103.60530431   217.65321628
 H     47  40  38     1.093467761741   108.82837985   175.44614106
 H     47  40  38     1.091881914878   111.07255827    56.45599304
 H     47  40  38     1.092402197198   111.69809358   294.63221269

---------------------------
INTERNAL COORDINATES (A.U.)
---------------------------
 C      0   0   0     0.000000000000     0.00000000     0.00000000
 C      1   0   0     2.650489339212     0.00000000     0.00000000
 C      2   1   0     2.605158226630   120.73355997     0.00000000
 C      1   2   3     2.611560994560   120.05228574   355.75733748
 C      4   1   2     2.694852746439   120.93349887   358.45855028
 O      4   1   2     2.594844260385   123.30231082   170.72740289
 C      3   2   1     2.660594455851   120.13456261     2.43209467
 C      7   3   2     2.708545157609   119.76719350   190.02558589
 C      8   7   3     2.560562623950   120.92854840   170.00831335
 C      5   4   1     2.721589251469   125.03433993   181.54980851
 C     10   5   4     2.688709982177   119.18117628   205.74716596
 N     10   5   4     2.632812385297   124.09772598    25.83693034
 C     12  10   5     2.565038436610   120.74739358   196.64693971
 C     13  12  10     2.607956739363   122.13368858   354.07464097
 C     14  13  12     2.614794870963   117.97584656   352.74920882
 C      6   4   1     2.643901044705   122.34447896    18.81266340
 O     16   6   4     2.295958496660   122.01184264    36.91126092
 N     16   6   4     2.539306944515   111.06103372   214.75021054
 C     18  16   6     2.762601134012   125.42520164     5.80327561
 C     18  16   6     2.760688349516   118.93398304   183.60998522
 H     20  18  16     2.066627552088   110.03617498   246.89677943
 H     20  18  16     2.064381608315   109.61718810   127.46804011
 H     20  18  16     2.051381307268   109.72928357     7.23782105
 H     19  18  16     2.065629317145   109.71234965   240.70574044
 H     19  18  16     2.065905205655   109.36421115   121.75320703
 H     19  18  16     2.047855489822   110.77678418     1.37650456
 H      3   2   1     2.048698981207   120.80561663   185.31914872
 H      1   2   3     2.040492788288   119.81508535   174.42894342
 H      2   1   3     2.049119565717   118.94316669   183.38840508
 H      8   7   3     2.049143330038   118.17861911   355.18673284
 H      9   8   7     2.048379165393   121.54777772   187.11144675
 H     13  12  10     2.041451996041   116.29630953   177.46730953
 H     14  13  12     2.043794479733   119.53136776   178.52550764
 H     15  14  13     2.049426866682   120.45637400   188.48293028
 P     12  10   5     3.424072602583   122.56451336    38.76229994
 O     35  12  10     2.782124237137   112.07504247   355.66534170
 O     35  12  10     2.975056888462    98.21369130   225.64267793
 O     35  12  10     2.995219174527   101.88518054   120.00400463
 C     37  35  12     2.798655239683   122.93545519   198.80675565
 C     38  35  12     2.788919295834   124.46105208   256.26593452
 C     39  37  35     2.851261378809   107.48905874   164.65905529
 H     39  37  35     2.058697947992   107.96488023    43.55456673
 H     39  37  35     2.059206015443   106.95374573   285.56551507
 H     41  39  37     2.063279298499   111.07861601   298.09916195
 H     41  39  37     2.065711677042   108.89661996   178.86200896
 H     41  39  37     2.062356006582   111.10328542    59.68739948
 C     40  38  35     2.857969107953   111.01282164    97.24208229
 H     40  38  35     2.058199852792   108.24255569   333.39427598
 H     40  38  35     2.056627676237   103.60530431   217.65321628
 H     47  40  38     2.066354605963   108.82837985   175.44614106
 H     47  40  38     2.063357789702   111.07255827    56.45599304
 H     47  40  38     2.064340980797   111.69809358   294.63221269

---------------------
BASIS SET INFORMATION
---------------------
There are 5 groups of distinct atoms

 Group   1 Type C   : 11s6p2d contracted to 5s3p2d pattern {62111/411/11}
 Group   2 Type O   : 11s6p2d contracted to 5s3p2d pattern {62111/411/11}
 Group   3 Type N   : 11s6p2d contracted to 5s3p2d pattern {62111/411/11}
 Group   4 Type H   : 5s1p contracted to 3s1p pattern {311/1}
 Group   5 Type P   : 14s9p3d contracted to 5s5p2d pattern {73211/51111/21}

Atom   0C    basis set group =>   1
Atom   1C    basis set group =>   1
Atom   2C    basis set group =>   1
Atom   3C    basis set group =>   1
Atom   4C    basis set group =>   1
Atom   5O    basis set group =>   2
Atom   6C    basis set group =>   1
Atom   7C    basis set group =>   1
Atom   8C    basis set group =>   1
Atom   9C    basis set group =>   1
Atom  10C    basis set group =>   1
Atom  11N    basis set group =>   3
Atom  12C    basis set group =>   1
Atom  13C    basis set group =>   1
Atom  14C    basis set group =>   1
Atom  15C    basis set group =>   1
Atom  16O    basis set group =>   2
Atom  17N    basis set group =>   3
Atom  18C    basis set group =>   1
Atom  19C    basis set group =>   1
Atom  20H    basis set group =>   4
Atom  21H    basis set group =>   4
Atom  22H    basis set group =>   4
Atom  23H    basis set group =>   4
Atom  24H    basis set group =>   4
Atom  25H    basis set group =>   4
Atom  26H    basis set group =>   4
Atom  27H    basis set group =>   4
Atom  28H    basis set group =>   4
Atom  29H    basis set group =>   4
Atom  30H    basis set group =>   4
Atom  31H    basis set group =>   4
Atom  32H    basis set group =>   4
Atom  33H    basis set group =>   4
Atom  34P    basis set group =>   5
Atom  35O    basis set group =>   2
Atom  36O    basis set group =>   2
Atom  37O    basis set group =>   2
Atom  38C    basis set group =>   1
Atom  39C    basis set group =>   1
Atom  40C    basis set group =>   1
Atom  41H    basis set group =>   4
Atom  42H    basis set group =>   4
Atom  43H    basis set group =>   4
Atom  44H    basis set group =>   4
Atom  45H    basis set group =>   4
Atom  46C    basis set group =>   1
Atom  47H    basis set group =>   4
Atom  48H    basis set group =>   4
Atom  49H    basis set group =>   4
Atom  50H    basis set group =>   4
Atom  51H    basis set group =>   4
---------------------------------
AUXILIARY/J BASIS SET INFORMATION
---------------------------------
There are 5 groups of distinct atoms

 Group   1 Type C   : 12s5p4d2f1g contracted to 6s4p3d1f1g pattern {711111/2111/211/2/1}
 Group   2 Type O   : 12s5p4d2f1g contracted to 6s4p3d1f1g pattern {711111/2111/211/2/1}
 Group   3 Type N   : 12s5p4d2f1g contracted to 6s4p3d1f1g pattern {711111/2111/211/2/1}
 Group   4 Type H   : 5s2p1d contracted to 3s1p1d pattern {311/2/1}
 Group   5 Type P   : 14s5p5d2f1g contracted to 8s4p3d1f1g pattern {71111111/2111/311/2/1}

Atom   0C    basis set group =>   1
Atom   1C    basis set group =>   1
Atom   2C    basis set group =>   1
Atom   3C    basis set group =>   1
Atom   4C    basis set group =>   1
Atom   5O    basis set group =>   2
Atom   6C    basis set group =>   1
Atom   7C    basis set group =>   1
Atom   8C    basis set group =>   1
Atom   9C    basis set group =>   1
Atom  10C    basis set group =>   1
Atom  11N    basis set group =>   3
Atom  12C    basis set group =>   1
Atom  13C    basis set group =>   1
Atom  14C    basis set group =>   1
Atom  15C    basis set group =>   1
Atom  16O    basis set group =>   2
Atom  17N    basis set group =>   3
Atom  18C    basis set group =>   1
Atom  19C    basis set group =>   1
Atom  20H    basis set group =>   4
Atom  21H    basis set group =>   4
Atom  22H    basis set group =>   4
Atom  23H    basis set group =>   4
Atom  24H    basis set group =>   4
Atom  25H    basis set group =>   4
Atom  26H    basis set group =>   4
Atom  27H    basis set group =>   4
Atom  28H    basis set group =>   4
Atom  29H    basis set group =>   4
Atom  30H    basis set group =>   4
Atom  31H    basis set group =>   4
Atom  32H    basis set group =>   4
Atom  33H    basis set group =>   4
Atom  34P    basis set group =>   5
Atom  35O    basis set group =>   2
Atom  36O    basis set group =>   2
Atom  37O    basis set group =>   2
Atom  38C    basis set group =>   1
Atom  39C    basis set group =>   1
Atom  40C    basis set group =>   1
Atom  41H    basis set group =>   4
Atom  42H    basis set group =>   4
Atom  43H    basis set group =>   4
Atom  44H    basis set group =>   4
Atom  45H    basis set group =>   4
Atom  46C    basis set group =>   1
Atom  47H    basis set group =>   4
Atom  48H    basis set group =>   4
Atom  49H    basis set group =>   4
Atom  50H    basis set group =>   4
Atom  51H    basis set group =>   4
---------------------------------
AUXILIARY/C BASIS SET INFORMATION
---------------------------------
There are 5 groups of distinct atoms

 Group   1 Type C   : 8s6p5d3f1g contracted to 8s6p4d3f1g pattern {11111111/111111/2111/111/1}
 Group   2 Type O   : 8s6p5d3f1g contracted to 8s6p4d3f1g pattern {11111111/111111/2111/111/1}
 Group   3 Type N   : 8s6p5d3f1g contracted to 8s6p4d3f1g pattern {11111111/111111/2111/111/1}
 Group   4 Type H   : 4s3p2d contracted to 4s2p1d pattern {1111/21/2}
 Group   5 Type P   : 10s7p7d5f2g contracted to 9s7p6d5f2g pattern {211111111/1111111/211111/11111/11}

Atom   0C    basis set group =>   1
Atom   1C    basis set group =>   1
Atom   2C    basis set group =>   1
Atom   3C    basis set group =>   1
Atom   4C    basis set group =>   1
Atom   5O    basis set group =>   2
Atom   6C    basis set group =>   1
Atom   7C    basis set group =>   1
Atom   8C    basis set group =>   1
Atom   9C    basis set group =>   1
Atom  10C    basis set group =>   1
Atom  11N    basis set group =>   3
Atom  12C    basis set group =>   1
Atom  13C    basis set group =>   1
Atom  14C    basis set group =>   1
Atom  15C    basis set group =>   1
Atom  16O    basis set group =>   2
Atom  17N    basis set group =>   3
Atom  18C    basis set group =>   1
Atom  19C    basis set group =>   1
Atom  20H    basis set group =>   4
Atom  21H    basis set group =>   4
Atom  22H    basis set group =>   4
Atom  23H    basis set group =>   4
Atom  24H    basis set group =>   4
Atom  25H    basis set group =>   4
Atom  26H    basis set group =>   4
Atom  27H    basis set group =>   4
Atom  28H    basis set group =>   4
Atom  29H    basis set group =>   4
Atom  30H    basis set group =>   4
Atom  31H    basis set group =>   4
Atom  32H    basis set group =>   4
Atom  33H    basis set group =>   4
Atom  34P    basis set group =>   5
Atom  35O    basis set group =>   2
Atom  36O    basis set group =>   2
Atom  37O    basis set group =>   2
Atom  38C    basis set group =>   1
Atom  39C    basis set group =>   1
Atom  40C    basis set group =>   1
Atom  41H    basis set group =>   4
Atom  42H    basis set group =>   4
Atom  43H    basis set group =>   4
Atom  44H    basis set group =>   4
Atom  45H    basis set group =>   4
Atom  46C    basis set group =>   1
Atom  47H    basis set group =>   4
Atom  48H    basis set group =>   4
Atom  49H    basis set group =>   4
Atom  50H    basis set group =>   4
Atom  51H    basis set group =>   4


           ************************************************************
           *        Program running with 128 parallel MPI-processes   *
           *              working on a common directory               *
           ************************************************************
------------------------------------------------------------------------------
                             ORCA STARTUP CALCULATIONS
                           -- RI-GTO INTEGRALS CHOSEN --
------------------------------------------------------------------------------
------------------------------------------------------------------------------
                   ___                                                        
                  /   \      - P O W E R E D   B Y -                         
                 /     \                                                     
                 |  |  |   _    _      __       _____    __    __             
                 |  |  |  | |  | |    /  \     |  _  \  |  |  /  |          
                  \  \/   | |  | |   /    \    | | | |  |  | /  /          
                 / \  \   | |__| |  /  /\  \   | |_| |  |  |/  /          
                |  |  |   |  __  | /  /__\  \  |    /   |      \           
                |  |  |   | |  | | |   __   |  |    \   |  |\   \          
                \     /   | |  | | |  |  |  |  | |\  \  |  | \   \       
                 \___/    |_|  |_| |__|  |__|  |_| \__\ |__|  \__/        
                                                                              
                      - O R C A' S   B I G   F R I E N D -                    
                                      &                                       
                       - I N T E G R A L  F E E D E R -                       
                                                                              
 v1 FN, 2020, v2 2021, v3 2022-2024                                           
------------------------------------------------------------------------------


----------------------
SHARK INTEGRAL PACKAGE
----------------------

Number of atoms                             ...     52
Number of basis functions                   ...    822
Number of shells                            ...    378
Maximum angular momentum                    ...      2
Integral batch strategy                     ... SHARK/LIBINT Hybrid
RI-J (if used) integral strategy            ... SPLIT-RIJ (Revised 2003 algorithm where possible)
Printlevel                                  ...      1
Contraction scheme used                     ... SEGMENTED contraction
Prescreening option                         ... SCHWARTZ
   Thresh                                   ... 2.500e-11
   Tcut                                     ... 2.500e-12
   Tpresel                                  ... 2.500e-12 
Coulomb Range Separation                    ... NOT USED
Exchange Range Separation                   ... NOT USED
Multipole approximations                    ... NOT USED
Finite Nucleus Model                        ... NOT USED
CABS basis                                  ... NOT available
Auxiliary Coulomb fitting basis             ... AVAILABLE
   # of basis functions in Aux-J            ...   1638
   # of shells in Aux-J                     ...    542
   Maximum angular momentum in Aux-J        ...      4
Auxiliary J/K fitting basis                 ... NOT available
Auxiliary Correlation fitting basis         ... AVAILABLE
   # of basis functions in Aux-C            ...   2525
   # of shells in Aux-C                     ...    791
   Maximum angular momentum in Aux-C        ...      4
Auxiliary 'external' fitting basis          ... NOT available

Checking pre-screening integrals            ... done (  1.5 sec) Dimension = 378
Check shell pair data                       ... done (  0.9 sec)
Shell pair information
Shell pair cut-off parameter TPreSel        ...   2.5e-12
Total number of shell pairs                 ...     71631
Shell pairs after pre-screening             ...     49615
Total number of primitive shell pairs       ...    234288
Primitive shell pairs kept                  ...    102567
          la=0 lb=0:  14834 shell pairs
          la=1 lb=0:  16580 shell pairs
          la=1 lb=1:   4674 shell pairs
          la=2 lb=0:   7907 shell pairs
          la=2 lb=1:   4496 shell pairs
          la=2 lb=2:   1124 shell pairs

Calculating one electron integrals          ... done (  0.2 sec)
Calculating RI/J V-Matrix + Cholesky decomp.... done (  4.4 sec)
Calculating RI/C V-Matrix + Cholesky decomp.... done (  5.1 sec)
Calculating Nuclear repulsion               ... done (  0.1 sec) ENN=   3120.426242855197 Eh

Diagonalization of the overlap matrix:
Smallest eigenvalue                        ... 4.853e-06
Time for diagonalization                   ...    0.451 sec
Threshold for overlap eigenvalues          ... 1.000e-07
Number of eigenvalues below threshold      ... 0
Time for construction of square roots      ...    0.426 sec
Total time needed                          ...    4.528 sec

-------------------
DFT GRID GENERATION
-------------------

General Integration Accuracy     IntAcc      ... 4.388
Radial Grid Type                 RadialGrid  ... OptM3 with GC (2021)
Angular Grid (max. ang.)         AngularGrid ... 4 (Lebedev-302)
Angular grid pruning method      GridPruning ... 4 (adaptive)
Weight generation scheme         WeightScheme... mBecke (2022)
Basis function cutoff            BFCut       ... 1.0000e-11
Integration weight cutoff        WCut        ... 1.0000e-14
Partially contracted basis set               ... off
Rotationally invariant grid construction     ... off
Angular grids for H and He will be reduced by one unit

Total number of grid points                  ...   244398
Total number of batches                      ...     3844
Average number of points per batch           ...       63
Average number of grid points per atom       ...     4700

--------------------
COSX GRID GENERATION
--------------------

GRIDX 1
-------
General Integration Accuracy     IntAcc      ... 3.816
Radial Grid Type                 RadialGrid  ... OptM3 with GC (2021)
Angular Grid (max. ang.)         AngularGrid ... 1 (Lebedev-50)
Angular grid pruning method      GridPruning ... 4 (adaptive)
Weight generation scheme         WeightScheme... mBecke (2022)
Basis function cutoff            BFCut       ... 1.0000e-11
Integration weight cutoff        WCut        ... 1.0000e-14
Partially contracted basis set               ... on
Rotationally invariant grid construction     ... off
Angular grids for H and He will be reduced by one unit

Total number of grid points                  ...    32019
Total number of batches                      ...      276
Average number of points per batch           ...      116
Average number of grid points per atom       ...      616
UseSFitting                                  ... on

GRIDX 2
-------
General Integration Accuracy     IntAcc      ... 4.020
Radial Grid Type                 RadialGrid  ... OptM3 with GC (2021)
Angular Grid (max. ang.)         AngularGrid ... 2 (Lebedev-110)
Angular grid pruning method      GridPruning ... 4 (adaptive)
Weight generation scheme         WeightScheme... mBecke (2022)
Basis function cutoff            BFCut       ... 1.0000e-11
Integration weight cutoff        WCut        ... 1.0000e-14
Partially contracted basis set               ... on
Rotationally invariant grid construction     ... off
Angular grids for H and He will be reduced by one unit

Total number of grid points                  ...    66423
Total number of batches                      ...      542
Average number of points per batch           ...      122
Average number of grid points per atom       ...     1277
UseSFitting                                  ... on

GRIDX 3
-------
General Integration Accuracy     IntAcc      ... 4.338
Radial Grid Type                 RadialGrid  ... OptM3 with GC (2021)
Angular Grid (max. ang.)         AngularGrid ... 3 (Lebedev-194)
Angular grid pruning method      GridPruning ... 4 (adaptive)
Weight generation scheme         WeightScheme... mBecke (2022)
Basis function cutoff            BFCut       ... 1.0000e-11
Integration weight cutoff        WCut        ... 1.0000e-14
Partially contracted basis set               ... on
Rotationally invariant grid construction     ... off
Angular grids for H and He will be reduced by one unit

Total number of grid points                  ...   145223
Total number of batches                      ...     1161
Average number of points per batch           ...      125
Average number of grid points per atom       ...     2793
UseSFitting                                  ... on
Initializing property integral containers    ... done (  1.7 sec)

SHARK setup successfully completed in 110.4 seconds

Maximum memory used throughout the entire STARTUP-calculation: 105.0 MB


           ************************************************************
           *        Program running with 128 parallel MPI-processes   *
           *              working on a common directory               *
           ************************************************************
-------------------------------------------------------------------------------
                                 ORCA GUESS
                   Start orbitals & Density for SCF / CASSCF
-------------------------------------------------------------------------------

------------
SCF SETTINGS
------------
Hamiltonian:
 Density Functional     Method          .... DFT(GTOs)
 Exchange Functional    Exchange        .... B88
   X-Alpha parameter    XAlpha          ....  0.666667
   Becke's b parameter  XBeta           ....  0.004200
 Correlation Functional Correlation     .... LYP
 LDA part of GGA corr.  LDAOpt          .... VWN-3
 Gradients option       PostSCFGGA      .... off
 Hybrid DFT is turned on
   Fraction HF Exchange ScalHFX         ....  0.200000
   Scaling of DF-GGA-X  ScalDFX         ....  0.720000
   Scaling of DF-GGA-C  ScalDFC         ....  0.810000
   Scaling of DF-LDA-C  ScalLDAC        ....  1.000000
   Perturbative correction              ....  0.000000
   NL short-range parameter             ....  4.800000
 RI-approximation to the Coulomb term is turned on
   Number of AuxJ basis functions       .... 1638
   RIJ-COSX (HFX calculated with COS-X)).... on


General Settings:
 Integral files         IntName         .... hbq-dcp-gs
 Hartree-Fock type      HFTyp           .... RHF
 Total Charge           Charge          ....    1
 Multiplicity           Mult            ....    1
 Number of Electrons    NEL             ....  212
 Basis Dimension        Dim             ....  822
 Nuclear Repulsion      ENuc            ....   3120.4262428552 Eh

Convergence Acceleration:
 AO-DIIS                CNVDIIS         .... on
   Start iteration      DIISMaxIt       ....    12
   Startup error        DIISStart       ....  0.200000
   # of expansion vecs  DIISMaxEq       ....     5
   Bias factor          DIISBfac        ....   1.050
   Max. coefficient     DIISMaxC        ....  10.000
 MO-DIIS                CNVKDIIS        .... off
 Trust-Rad. Augm. Hess. CNVTRAH         .... auto
   Auto Start mean grad. ratio tolernc. ....  1.125000
   Auto Start start iteration           ....    50
   Auto Start num. interpolation iter.  ....    10
   Max. Number of Micro iterations      ....    24
   Max. Number of Macro iterations      .... Maxiter - #DIIS iter
   Number of Davidson start vectors     ....     2
   Converg. threshold    (grad. norm)   ....   1.000e-05
   Grad. Scal. Fac. for Micro threshold ....   0.100
   Minimum threshold for Micro iter.    ....   1.000e-02
   NR start threshold (gradient norm)   ....   1.000e-04
   Initial trust radius                 ....   0.400
   Minimum AH scaling param. (alpha)    ....   1.000
   Maximum AH scaling param. (alpha)    .... 1000.000
   Quad. conv. algorithm                .... NR
   White noise on init. David. guess    .... on
   Maximum white noise                  ....   0.010
   Pseudo random numbers                .... off
   Inactive MOs                         .... canonical
   Orbital update algorithm             .... Taylor
   Preconditioner                       .... Diag
   Full preconditioner red. dimension   ....   250
 SOSCF                  CNVSOSCF        .... on
   Start iteration      SOSCFMaxIt      ....   150
   Startup grad/error   SOSCFStart      ....  0.003300
   Hessian update       SOSCFHessUp     .... L-BFGS
 Level Shifting         CNVShift        .... on
   Level shift para.    LevelShift      ....    0.2500
   Turn off err/grad.   ShiftErr        ....    0.0010
 Zerner damping         CNVZerner       .... off
 Static damping         CNVDamp         .... on
   Fraction old density DampFac         ....    0.7000
   Max. Damping (<1)    DampMax         ....    0.9800
   Min. Damping (>=0)   DampMin         ....    0.0000
   Turn off err/grad.   DampErr         ....    0.1000

SCF Procedure:
 Maximum # iterations   MaxIter         ....   125
 SCF integral mode      SCFMode         .... Direct
   Integral package                     .... SHARK and LIBINT hybrid scheme
 Reset frequency        DirectResetFreq ....    20
 Integral Threshold     Thresh          ....  2.500e-11 Eh
 Primitive CutOff       TCut            ....  2.500e-12 Eh

Convergence Tolerance:
 Convergence Check Mode ConvCheckMode   .... Total+1el-Energy
 Convergence forced     ConvForced      .... 0
 Energy Change          TolE            ....  1.000e-08 Eh
 1-El. energy change                    ....  1.000e-05 Eh
 Orbital Gradient       TolG            ....  1.000e-05
 Orbital Rotation angle TolX            ....  1.000e-05
 DIIS Error             TolErr          ....  5.000e-07

------------------------------
INITIAL GUESS: MODEL POTENTIAL
------------------------------
Loading Hartree-Fock densities                     ... done
Calculating cut-offs                               ... done
Initializing the effective Hamiltonian             ... done
Setting up the integral package (SHARK)            ... done
Starting the Coulomb interaction                   ... done (   2.4 sec)
Making the grid                                    ... done (  15.2 sec)
Mapping shells                                     ... done
Starting the XC term evaluation                    ... done (   1.1 sec)
  promolecular density results
     # of electrons  =    212.994172048
     EX              =   -186.927608425
     EC              =     -7.402914060
     EX+EC           =   -194.330522485
Transforming the Hamiltonian                       ... done (   4.5 sec)
Diagonalizing the Hamiltonian                      ... done (   0.8 sec)
Back transforming the eigenvectors                 ... done (   6.7 sec)
Now organizing SCF variables                       ... done
                      ------------------
                      INITIAL GUESS DONE (  66.5 sec)
                      ------------------
             **** ENERGY FILE WAS UPDATED (hbq-dcp-gs.en.tmp) ****
Finished Guess after 117.9 sec
Maximum memory used throughout the entire GUESS-calculation: 81.3 MB


           ************************************************************
           *        Program running with 128 parallel MPI-processes   *
           *              working on a common directory               *
           ************************************************************

-------------------------------------------------------------------------------------------
                                      ORCA LEAN-SCF
                              memory conserving SCF solver
-------------------------------------------------------------------------------------------

--------------------
CPCM SOLVATION MODEL
--------------------
CPCM parameters:
  Epsilon                                         ...      80.1510
  Refrac                                          ...       1.3328
  Rsolv                                           ...       1.3000
  Surface type                                    ... GAUSSIAN VDW
  Discretization scheme                           ... Constant charge density
    Threshold for H atoms                         ...       5.0000 (charges/Ang^2)
    Threshold for non-H atoms                     ...       5.0000 (charges/Ang^2)
  Epsilon function type                           ...         CPCM
Solvent:                                          ... WATER
Radii:
  Scheme                                          ... Element-dependent radii
  Radius for C  used is    3.8550 Bohr (=   2.0400 Ang.)
  Radius for O  used is    3.4469 Bohr (=   1.8240 Ang.)
  Radius for N  used is    3.5149 Bohr (=   1.8600 Ang.)
  Radius for H  used is    2.4944 Bohr (=   1.3200 Ang.)
  Radius for P  used is    4.0818 Bohr (=   2.1600 Ang.)
Calculating surface                               ...        done! (  0.0s)
Cavity surface points                             ...         4402
Cavity Volume                                     ...    3096.7904
Cavity Surface-area                               ...    1540.0861
Calculating surface distance matrix               ...        done! (  0.4s)
Performing Cholesky decomposition & store         ...        done! (  5.0s)
Overall time for CPCM initialization              ...                 5.4s

----------------------------------------D-I-I-S--------------------------------------------
Iteration    Energy (Eh)           Delta-E    RMSDP     MaxDP     DIISErr   Damp  Time(sec)
-------------------------------------------------------------------------------------------
               ***  Starting incremental Fock matrix formation  ***
    1    -1603.1927703801043208     0.00e+00  1.39e-03  1.50e-01  3.62e-01  0.700 161.3
    2    -1603.5807143716979226    -3.88e-01  9.81e-04  6.09e-02  1.23e-01  0.700 176.6
                               ***Turning on AO-DIIS***
    3    -1603.7212660225218315    -1.41e-01  5.20e-04  4.49e-02  3.74e-02  0.700 195.6
    4    -1603.8103247012927568    -8.91e-02  9.59e-04  9.18e-02  1.84e-02  0.000 224.3
    5    -1604.0087207370693250    -1.98e-01  1.96e-04  9.76e-03  6.28e-03  0.000 232.4
                              *** Initializing SOSCF ***
---------------------------------------S-O-S-C-F--------------------------------------
Iteration    Energy (Eh)           Delta-E    RMSDP     MaxDP     MaxGrad    Time(sec)
--------------------------------------------------------------------------------------
    6    -1604.0097861335857488    -1.07e-03  5.87e-05  5.82e-03  2.20e-03   246.5
               *** Restarting incremental Fock matrix formation ***
    7    -1604.0098320949914523    -4.60e-05  6.72e-05  6.76e-03  3.71e-04   224.7
    8    -1604.0097962526392621     3.58e-05  2.53e-05  1.95e-03  7.52e-04   224.6
    9    -1604.0098524097579684    -5.62e-05  5.50e-06  5.21e-04  2.34e-05   233.5
   10    -1604.0098522683815645     1.41e-07  2.53e-06  2.92e-04  3.92e-05   230.6
   11    -1604.0098525802009135    -3.12e-07  5.05e-06  7.00e-04  1.47e-05   232.5
   12    -1604.0098525533080647     2.69e-08  1.03e-06  6.91e-05  1.68e-05   220.2
   13    -1604.0098526018614393    -4.86e-08  2.65e-06  3.48e-04  1.50e-06   188.4
                  *** Gradient check signals convergence ***

               *****************************************************
               *                     SUCCESS                       *
               *           SCF CONVERGED AFTER  13 CYCLES          *
               *****************************************************

Recomputing exchange energy using gridx3       ... done (   16.453 sec)
Old exchange energy                            :    -37.853962317 Eh
New exchange energy                            :    -37.853962008 Eh
Exchange energy change after final integration :      0.000000309 Eh
Total energy after final integration           :  -1604.009852293 Eh
             **** ENERGY FILE WAS UPDATED (hbq-dcp-gs.en.tmp) ****

----------------
TOTAL SCF ENERGY
----------------

Total Energy       :      -1604.00985229261664 Eh          -43647.32707 eV

Components:
Nuclear Repulsion  :       3120.42624285519696 Eh           84911.11487 eV
Electronic Energy  :      -4724.34901299530429 Eh         -128556.07231 eV
One Electron Energy:      -8375.09132320798381 Eh         -227897.82101 eV
Two Electron Energy:       3650.74231021267951 Eh           99341.74870 eV
CPCM Dielectric    :         -0.08708246175409 Eh              -2.36963 eV

Virial components:
Potential Energy   :      -3200.82112408151988 Eh          -87098.77080 eV
Kinetic Energy     :       1596.81127178890324 Eh           43451.44373 eV
Virial Ratio       :          2.00450809725037

DFT components:
N(Alpha)           :      106.000219823998 electrons
N(Beta)            :      106.000219823998 electrons
N(Total)           :      212.000439647996 electrons
E(X)               :     -150.464412086557 Eh       
E(C)               :       -9.460902509802 Eh       
E(XC)              :     -159.925314596358 Eh       

CPCM Solvation Model Properties:
Surface-charge          :         -1.03439923132312
Corrected charge        :         -1.00000000000000
Outlying charge corr.   :          0.00005854770005 Eh               0.00159 eV
Free-energy (cav+disp)  :  This term is not implemented in the current solvation scheme

---------------
SCF CONVERGENCE
---------------

  Last Energy change         ...    4.8553e-08  Tolerance :   1.0000e-08
  Last MAX-Density change    ...    3.4849e-04  Tolerance :   1.0000e-07
  Last RMS-Density change    ...    2.6516e-06  Tolerance :   5.0000e-09
  Last DIIS Error            ...    2.2003e-03  Tolerance :   5.0000e-07
  Last Orbital Gradient      ...    1.4984e-06  Tolerance :   1.0000e-05
  Last Orbital Rotation      ...    5.8759e-06  Tolerance :   1.0000e-05


----------------
ORBITAL ENERGIES
----------------

  NO   OCC          E(Eh)            E(eV) 
   0   2.0000     -77.224288     -2101.3797 
[...]
133:   3040.00   0.003163   15.98  0.000325  ( 0.013533 -0.003131  0.011478)
134:   3040.03   0.014764   74.61  0.001516  (-0.003814 -0.008260  0.037852)
135:   3044.66   0.003467   17.52  0.000355  ( 0.002352  0.006164 -0.017660)
136:   3080.30   0.004071   20.57  0.000412  ( 0.015577 -0.010992 -0.006995)
137:   3087.22   0.012250   61.91  0.001238  (-0.010024 -0.032733 -0.008145)
138:   3088.24   0.002678   13.53  0.000271  (-0.009952  0.010083  0.008362)
139:   3090.96   0.000311    1.57  0.000031  (-0.000137  0.001203 -0.005468)
140:   3107.88   0.007278   36.78  0.000731  (-0.009849  0.018828  0.016711)
141:   3109.75   0.003367   17.02  0.000338  (-0.010699 -0.009412  0.011612)
142:   3110.96   0.004141   20.93  0.000415  ( 0.018751 -0.007203 -0.003457)
143:   3114.80   0.002404   12.15  0.000241  (-0.003541  0.012809  0.008017)
144:   3141.81   0.006325   31.96  0.000628  ( 0.017555  0.015853  0.008290)
145:   3147.39   0.003787   19.14  0.000376  (-0.002856 -0.018179  0.006073)
146:   3174.31   0.000720    3.64  0.000071  ( 0.007508 -0.003007 -0.002316)
147:   3186.24   0.001162    5.87  0.000114  (-0.007678  0.005628 -0.004811)
148:   3188.83   0.000221    1.11  0.000022  ( 0.004277  0.001782 -0.000339)
149:   3192.09   0.000370    1.87  0.000036  (-0.005455 -0.000915 -0.002354)
150:   3198.93   0.000004    0.02  0.000000  ( 0.000532 -0.000023  0.000376)
151:   3202.24   0.002205   11.15  0.000215  ( 0.007953  0.010354 -0.006669)
152:   3206.23   0.001027    5.19  0.000100  ( 0.002365 -0.007266  0.006446)
153:   3230.54   0.000806    4.08  0.000078  ( 0.004666 -0.006830  0.003080)
154:   3239.92   0.000192    0.97  0.000018  ( 0.004187  0.000586 -0.000776)
155:   3242.51   0.003466   17.51  0.000334  (-0.003174 -0.016280  0.007643)

* The epsilon (eps) is given for a Dirac delta lineshape.
** The dipole moment derivative (T) already includes vibrational overlap.

The first frequency considered to be a vibration is 6
The total number of vibrations considered is 150


--------------------------
THERMOCHEMISTRY AT 298.15K
--------------------------

Temperature         ...   298.15 K
Pressure            ...     1.00 atm
Total Mass          ...   403.39 AMU
Quasi RRHO          ...     True
Cut-Off Frequency   ...     1.00 cm^-1

Throughout the following assumptions are being made:
  (1) The electronic state is orbitally nondegenerate
  (2) There are no thermally accessible electronically excited states
  (3) Hindered rotations indicated by low frequency modes are not
      treated as such but are treated as vibrations and this may
      cause some error
  (4) All equations used are the standard statistical mechanics
      equations for an ideal gas
  (5) All vibrations are strictly harmonic

freq.      24.76  E(vib)   ...       0.56 
freq.      28.93  E(vib)   ...       0.55 
freq.      33.17  E(vib)   ...       0.55 
freq.      43.96  E(vib)   ...       0.53 
freq.      46.29  E(vib)   ...       0.53 
freq.      51.55  E(vib)   ...       0.52 
freq.      61.76  E(vib)   ...       0.51 
freq.      67.72  E(vib)   ...       0.50 
freq.      71.15  E(vib)   ...       0.50 
freq.      74.29  E(vib)   ...       0.49 
freq.      86.78  E(vib)   ...       0.48 
freq.      99.82  E(vib)   ...       0.46 
freq.     105.60  E(vib)   ...       0.45 
freq.     123.61  E(vib)   ...       0.43 
freq.     133.66  E(vib)   ...       0.42 
freq.     154.16  E(vib)   ...       0.40 
freq.     187.34  E(vib)   ...       0.36 
freq.     195.52  E(vib)   ...       0.36 
freq.     208.26  E(vib)   ...       0.34 
freq.     223.53  E(vib)   ...       0.33 
freq.     240.01  E(vib)   ...       0.31 
freq.     245.84  E(vib)   ...       0.31 
freq.     250.85  E(vib)   ...       0.30 
freq.     254.11  E(vib)   ...       0.30 
freq.     267.52  E(vib)   ...       0.29 
freq.     281.78  E(vib)   ...       0.28 
freq.     305.91  E(vib)   ...       0.26 
freq.     314.44  E(vib)   ...       0.25 
freq.     342.26  E(vib)   ...       0.23 
freq.     357.08  E(vib)   ...       0.22 
freq.     378.48  E(vib)   ...       0.21 
freq.     396.84  E(vib)   ...       0.20 
freq.     415.67  E(vib)   ...       0.18 
freq.     438.79  E(vib)   ...       0.17 
freq.     445.46  E(vib)   ...       0.17 
freq.     474.29  E(vib)   ...       0.15 
freq.     486.50  E(vib)   ...       0.15 
freq.     499.93  E(vib)   ...       0.14 
freq.     512.98  E(vib)   ...       0.13 
freq.     520.22  E(vib)   ...       0.13 
freq.     530.76  E(vib)   ...       0.13 
freq.     544.04  E(vib)   ...       0.12 
freq.     562.38  E(vib)   ...       0.11 
freq.     589.91  E(vib)   ...       0.10 
freq.     621.94  E(vib)   ...       0.09 
freq.     630.88  E(vib)   ...       0.09 
freq.     664.23  E(vib)   ...       0.08 
freq.     711.83  E(vib)   ...       0.07 
freq.     727.31  E(vib)   ...       0.06 
freq.     731.09  E(vib)   ...       0.06 
freq.     746.32  E(vib)   ...       0.06 
freq.     762.65  E(vib)   ...       0.06 
freq.     779.79  E(vib)   ...       0.05 
freq.     788.99  E(vib)   ...       0.05 
freq.     792.18  E(vib)   ...       0.05 
freq.     814.39  E(vib)   ...       0.05 
freq.     818.47  E(vib)   ...       0.05 
freq.     822.01  E(vib)   ...       0.05 
freq.     827.11  E(vib)   ...       0.04 
freq.     853.83  E(vib)   ...       0.04 
freq.     856.74  E(vib)   ...       0.04 
freq.     907.67  E(vib)   ...       0.03 
freq.     912.67  E(vib)   ...       0.03 
freq.     957.82  E(vib)   ...       0.03 
freq.     971.48  E(vib)   ...       0.03 
freq.     979.07  E(vib)   ...       0.03 
freq.     987.20  E(vib)   ...       0.02 
freq.     991.46  E(vib)   ...       0.02 
freq.     992.38  E(vib)   ...       0.02 
freq.     994.31  E(vib)   ...       0.02 
freq.    1016.64  E(vib)   ...       0.02 
freq.    1017.16  E(vib)   ...       0.02 
freq.    1033.97  E(vib)   ...       0.02 
freq.    1062.54  E(vib)   ...       0.02 
freq.    1074.39  E(vib)   ...       0.02 
freq.    1110.35  E(vib)   ...       0.02 
freq.    1114.51  E(vib)   ...       0.01 
freq.    1117.59  E(vib)   ...       0.01 
freq.    1125.94  E(vib)   ...       0.01 
freq.    1132.14  E(vib)   ...       0.01 
freq.    1138.19  E(vib)   ...       0.01 
freq.    1153.65  E(vib)   ...       0.01 
freq.    1170.82  E(vib)   ...       0.01 
freq.    1173.37  E(vib)   ...       0.01 
freq.    1179.11  E(vib)   ...       0.01 
freq.    1183.89  E(vib)   ...       0.01 
freq.    1199.49  E(vib)   ...       0.01 
freq.    1212.18  E(vib)   ...       0.01 
freq.    1237.15  E(vib)   ...       0.01 
freq.    1254.12  E(vib)   ...       0.01 
freq.    1271.31  E(vib)   ...       0.01 
freq.    1285.31  E(vib)   ...       0.01 
freq.    1293.25  E(vib)   ...       0.01 
freq.    1302.57  E(vib)   ...       0.01 
freq.    1314.49  E(vib)   ...       0.01 
freq.    1314.96  E(vib)   ...       0.01 
freq.    1345.62  E(vib)   ...       0.01 
freq.    1356.66  E(vib)   ...       0.01 
freq.    1401.01  E(vib)   ...       0.00 
freq.    1403.64  E(vib)   ...       0.00 
freq.    1411.12  E(vib)   ...       0.00 
freq.    1412.79  E(vib)   ...       0.00 
freq.    1416.18  E(vib)   ...       0.00 
freq.    1417.76  E(vib)   ...       0.00 
freq.    1439.70  E(vib)   ...       0.00 
freq.    1454.09  E(vib)   ...       0.00 
freq.    1457.80  E(vib)   ...       0.00 
freq.    1462.84  E(vib)   ...       0.00 
freq.    1469.40  E(vib)   ...       0.00 
freq.    1471.11  E(vib)   ...       0.00 
freq.    1476.96  E(vib)   ...       0.00 
freq.    1478.37  E(vib)   ...       0.00 
freq.    1481.23  E(vib)   ...       0.00 
freq.    1482.66  E(vib)   ...       0.00 
freq.    1485.36  E(vib)   ...       0.00 
freq.    1491.68  E(vib)   ...       0.00 
freq.    1505.54  E(vib)   ...       0.00 
freq.    1507.93  E(vib)   ...       0.00 
freq.    1521.79  E(vib)   ...       0.00 
freq.    1527.94  E(vib)   ...       0.00 
freq.    1552.97  E(vib)   ...       0.00 
freq.    1596.54  E(vib)   ...       0.00 
freq.    1617.26  E(vib)   ...       0.00 
freq.    1638.35  E(vib)   ...       0.00 
freq.    1656.66  E(vib)   ...       0.00 
freq.    1729.73  E(vib)   ...       0.00 
freq.    3035.70  E(vib)   ...       0.00 
freq.    3040.00  E(vib)   ...       0.00 
freq.    3040.03  E(vib)   ...       0.00 
freq.    3044.66  E(vib)   ...       0.00 
freq.    3080.30  E(vib)   ...       0.00 
freq.    3087.22  E(vib)   ...       0.00 
freq.    3088.24  E(vib)   ...       0.00 
freq.    3090.96  E(vib)   ...       0.00 
freq.    3107.88  E(vib)   ...       0.00 
freq.    3109.75  E(vib)   ...       0.00 
freq.    3110.96  E(vib)   ...       0.00 
freq.    3114.80  E(vib)   ...       0.00 
freq.    3141.81  E(vib)   ...       0.00 
freq.    3147.39  E(vib)   ...       0.00 
freq.    3174.31  E(vib)   ...       0.00 
freq.    3186.24  E(vib)   ...       0.00 
freq.    3188.83  E(vib)   ...       0.00 
freq.    3192.09  E(vib)   ...       0.00 
freq.    3198.93  E(vib)   ...       0.00 
freq.    3202.24  E(vib)   ...       0.00 
freq.    3206.23  E(vib)   ...       0.00 
freq.    3230.54  E(vib)   ...       0.00 
freq.    3239.92  E(vib)   ...       0.00 
freq.    3242.51  E(vib)   ...       0.00 

------------
INNER ENERGY
------------

The inner energy is: U= E(el) + E(ZPE) + E(vib) + E(rot) + E(trans)
    E(el)   - is the total energy from the electronic structure calculation
              = E(kin-el) + E(nuc-el) + E(el-el) + E(nuc-nuc)
    E(ZPE)  - the the zero temperature vibrational energy from the frequency calculation
    E(vib)  - the the finite temperature correction to E(ZPE) due to population
              of excited vibrational states
    E(rot)  - is the rotational thermal energy
    E(trans)- is the translational thermal energy

Summary of contributions to the inner energy U:
Electronic energy                ...  -1604.01085214 Eh
Zero point energy                ...      0.41868874 Eh     262.73 kcal/mol
Thermal vibrational correction   ...      0.02518146 Eh      15.80 kcal/mol
Thermal rotational correction    ...      0.00141627 Eh       0.89 kcal/mol
Thermal translational correction ...      0.00141627 Eh       0.89 kcal/mol
-----------------------------------------------------------------------
Total thermal energy                  -1603.56414940 Eh


Summary of corrections to the electronic energy:
(perhaps to be used in another calculation)
Total thermal correction                  0.02801400 Eh      17.58 kcal/mol
Non-thermal (ZPE) correction              0.41868874 Eh     262.73 kcal/mol
-----------------------------------------------------------------------
Total correction                          0.44670274 Eh     280.31 kcal/mol


--------
ENTHALPY
--------

The enthalpy is H = U + kB*T
                kB is Boltzmann's constant
Total thermal energy              ...  -1603.56414940 Eh 
Thermal Enthalpy correction       ...      0.00094421 Eh       0.59 kcal/mol
-----------------------------------------------------------------------
Total Enthalpy                    ...  -1603.56320519 Eh


Note: Only C1 symmetry has been detected, increase convergence thresholds 
      if your molecule has a higher symmetry. Symmetry factor of 1.0 is   
      used for the rotational entropy correction. 
 

Note: Rotational entropy computed according to Herzberg 
Infrared and Raman Spectra, Chapter V,1, Van Nostrand Reinhold, 1945 
Point Group:  C1, Symmetry Number:   1  
Rotational constants in cm-1:     0.007023     0.006059     0.004288 

Vibrational entropy computed according to the QRRHO of S. Grimme
Chem.Eur.J. 2012 18 9955 using a reference frequency of 100.0 cm-1


-------
ENTROPY
-------

The entropy contributions are T*S = T*(S(el)+S(vib)+S(rot)+S(trans))
     S(el)   - electronic entropy
     S(vib)  - vibrational entropy
     S(rot)  - rotational entropy
     S(trans)- translational entropy
The entropies will be listed as multiplied by the temperature to get
units of energy

Electronic entropy                ...      0.00000000 Eh      0.00 kcal/mol
Vibrational entropy               ...      0.04531858 Eh     28.44 kcal/mol
Rotational entropy                ...      0.01683614 Eh     10.56 kcal/mol
Translational entropy             ...      0.02084658 Eh     13.08 kcal/mol
-----------------------------------------------------------------------
Final entropy term                ...      0.08300129 Eh     52.08 kcal/mol

In case the symmetry of your molecule has not been determined correctly
or in case you have a reason to use a different symmetry number we print 
out the resulting rotational entropy values for sn=1,12:

 non-linear molecules -----------------------------------
|  sn= 1 | S(rot)=       0.01683614 Eh     10.56 kcal/mol|
|  sn= 2 | S(rot)=       0.01618168 Eh     10.15 kcal/mol|
|  sn= 3 | S(rot)=       0.01579885 Eh      9.91 kcal/mol|
|  sn= 4 | S(rot)=       0.01552722 Eh      9.74 kcal/mol|
|  sn= 5 | S(rot)=       0.01531653 Eh      9.61 kcal/mol|
|  sn= 6 | S(rot)=       0.01514439 Eh      9.50 kcal/mol|
|  sn= 7 | S(rot)=       0.01499884 Eh      9.41 kcal/mol|
|  sn= 8 | S(rot)=       0.01487277 Eh      9.33 kcal/mol|
|  sn= 9 | S(rot)=       0.01476156 Eh      9.26 kcal/mol|
|  sn=10 | S(rot)=       0.01466208 Eh      9.20 kcal/mol|
|  sn=11 | S(rot)=       0.01457209 Eh      9.14 kcal/mol|
|  sn=12 | S(rot)=       0.01448993 Eh      9.09 kcal/mol|
 linear molecules ---------------------------------------
|  Dinfh | S(rot)=       0.01047347 Eh      6.57 kcal/mol|
|  Cinfv | S(rot)=       0.01112792 Eh      6.98 kcal/mol|
 --------------------------------------------------------


-------------------
GIBBS FREE ENERGY
-------------------

The Gibbs free energy is G = H - T*S

Total enthalpy                    ...  -1603.56320519 Eh 
Total entropy correction          ...     -0.08300129 Eh    -52.08 kcal/mol
-----------------------------------------------------------------------
Final Gibbs free energy         ...  -1603.64620648 Eh

For completeness - the Gibbs free energy minus the electronic energy
G-E(el)                           ...      0.36464566 Eh    228.82 kcal/mol


Maximum memory used throughout the entire PROP-calculation: 665.1 MB

--------------------------------
SUGGESTED CITATIONS FOR THIS RUN
--------------------------------

Below you find a list of papers that are relevant to this ORCA run
We neither can nor want to force you to cite these papers, but we appreciate if you do
You receive ORCA, which is the product of decades of hard work by many enthusiastic individuals, for free
The only thing we kindly ask in return is that you cite our papers,
We deeply appreciate it, if you show your appreciation for ORCA by not just citing the generic ORCA reference.

Please note that relegating all ORCA citations to the supporting information does *not* help us.
SI sections are not indexed - citations you put there will not count into any citation statistics
But we need these citations in order to attract the funding resources that allow us to do what we are doing

Therefore, if you are a happy ORCA user, please consider citing a few of the papers listed below in the main body of your paper

In addition to the list printed below, the program has created the file hbq-dcp-gs.bibtex that contains the list in bibtex format
You can import this file easily into all common literature databanks and citation aid programs


List of essential papers. We consider these as the minimum necessary citations

  1. Neese,F.
     Software update: the ORCA program system, version 5.0
     WIRES Comput. Molec. Sci., 2022 12(1)e1606
     doi.org/10.1002/wcms.1606

List of papers to cite with high priority. The work reported in these papers was absolutely
necessary for this run to complete.
Our perspective: the developers of density functionals and basis sets usually get cited in chemistry papers
Good! But without the algorithms to do something with them, the functionals or basis sets would not do anything.
Hence, in our opinion, the algorithm design and method developments papers are equally worthy of getting cited

  1. Neese,F.
     An improvement of the resolution of the identity approximation for the formation of the Coulomb matrix
     J. Comp. Chem., 2003 24(14)1740-1747
     doi.org/10.1002/jcc.10318
  2. Neese,F.; Wennmohs,F.; Hansen,A.; Becker,U.
     Efficient, approximate and parallel Hartree-Fock and hybrid DFT calculations. A 'chain-of-spheres' algorithm for the Hartree-Fock exchange
     Chem. Phys., 2009 356(1-3)98-109
     doi.org/10.1016/j.chemphys.2008.10.036
  3. Bykov,D.; Petrenko,T.; Izsak,R.; Kossmann,S.; Becker,U.; Valeev,E.; Neese,F.
     Efficient implementation of the analytic second derivatives of Hartree-Fock and hybrid DFT energies: a detailed analysis of different approximations
     Molec. Phys., 2015 113 1961-1977
     doi.org/10.1080/00268976.2015.1025114
  4. Garcia-Rates,M.; Neese,F.
     Efficient implementation of the analytical second derivatives of hartree-fock and hybrid DFT energies within the framework of the conductor-like polarizable continuum model
     J. Comput. Chem., 2019 40 1816-1828
     doi.org/10.1002/jcc.25833
  5. Garcia-Rates,M.; Neese,F.
     Effect of the Solute Cavity on the Solvation Energy and its Derivatives within the Framework of the Gaussian Charge Scheme
     J. Comput. Chem., 2020 41 922-939
     doi.org/10.1002/jcc.26139
  6. Helmich-Paris,B.; de Souza,B.; Neese,F.; Izsák,R.
     An improved chain of spheres for exchange algorithm
     J. Chem. Phys., 2021 155 104109
     doi.org/doi: 10.1063/5.0058766.
  7. Neese,F.
     The SHARK Integral Generation and Digestion System
     J. Comp. Chem., 2022  1-16
     doi.org/10.1002/jcc.26942

List of suggested additional citations. These are papers that are important in the 'surrounding' of 
of this run, or papers that preceded the highly important papers. If you like your results we are grateful for a citation.

  1. Izsak,R.; Neese,F.
     An overlap fitted chain of spheres exchange method
     J. Chem. Phys., 2011 135 144105
     doi.org/10.1063/1.3646921
  2. Izsak,R.; Hansen,A.; Neese,F.
     The resolution of identity and chain of spheres approximations for the LPNO-CCSD singles Fock term
     Molec. Phys., 2012 110 2413-2417
     doi.org/10.1080/00268976.2012.687466
  3. Neese,F.
     The ORCA program system
     WIRES Comput. Molec. Sci., 2012 2(1)73-78
     doi.org/10.1002/wcms.81
  4. Izsak,R.; Neese,F.; Klopper,W.
     Robust fitting techniques in the chain of spheres approximation to the Fock exchange: The role of the complementary space
     J. Chem. Phys., 2013 139 
     doi.org/10.1063/1.4819264
  5. Neese,F.
     Software update: the ORCA program system, version 4.0
     WIRES Comput. Molec. Sci., 2018 8(1)1-6
     doi.org/10.1002/wcms.1327
  6. Neese,F.; Wennmohs,F.; Becker,U.; Riplinger,C.
     The ORCA quantum chemistry program package
     J. Chem. Phys., 2020 152 Art. No. L224108
     doi.org/10.1063/5.0004608

List of optional additional citations

  1. Neese,F.
     Approximate second-order SCF convergence for spin unrestricted wavefunctions
     Chem. Phys. Lett., 2000 325(1-3)93-98
     doi.org/10.1016/s0009-2614(00)00662-x

Timings for individual modules:

Sum of individual times          ...   186003.326 sec (=3100.055 min)
Startup calculation              ...    10724.539 sec (= 178.742 min)   5.8 %
SCF iterations                   ...   118190.351 sec (=1969.839 min)  63.5 %
Property integrals               ...     9652.421 sec (= 160.874 min)   5.2 %
SCF Response                     ...    33222.267 sec (= 553.704 min)  17.9 %
Property calculations            ...     2604.465 sec (=  43.408 min)   1.4 %
SCF Gradient evaluation          ...    11580.232 sec (= 193.004 min)   6.2 %
Geometry relaxation              ...       29.050 sec (=   0.484 min)   0.0 %
                             ****ORCA TERMINATED NORMALLY****
TOTAL RUN TIME: 2 days 4 hours 30 minutes 12 seconds 179 msec
