
                                 *****************
                                 * O   R   C   A *
                                 *****************

                                            #,                                       
                                            ###                                      
                                            ####                                     
                                            #####                                    
                                            ######                                   
                                           ########,                                 
                                     ,,################,,,,,                         
                               ,,#################################,,                 
                          ,,##########################################,,             
                       ,#########################################, ''#####,          
                    ,#############################################,,   '####,        
                  ,##################################################,,,,####,       
                ,###########''''           ''''###############################       
              ,#####''   ,,,,##########,,,,          '''####'''          '####       
            ,##' ,,,,###########################,,,                        '##       
           ' ,,###''''                  '''############,,,                           
         ,,##''                                '''############,,,,        ,,,,,,###''
      ,#''                                            '''#######################'''  
     '                                                          ''''####''''         
             ,#######,   #######,   ,#######,      ##                                
            ,#'     '#,  ##    ##  ,#'     '#,    #''#        ,####,   ,####,        
            ##       ##  ##   ,#'  ##            #'  '#       #'       #'  '#        
            ##       ##  #######   ##           ,######,      #####,   #    #        
            '#,     ,#'  ##    ##  '#,     ,#' ,#      #,     #,   #   #,  ,#        
             '#######'   ##     ##  '#######'  #'      '#     '####' # '####'        



                #########################################################
                #                        -***-                          #
                #          Department of theory and spectroscopy        #
                #                                                       #
                #                      Frank Neese                      #
                #                                                       #
                #     Directorship, Architecture, Infrastructure        #
                #                    SHARK, DRIVERS                     #
                #        Core code/Algorithms in most modules           #
                #                                                       #
                #        Max Planck Institute fuer Kohlenforschung      #
                #                Kaiser Wilhelm Platz 1                 #
                #                 D-45470 Muelheim/Ruhr                 #
                #                      Germany                          #
                #                                                       #
                #                  All rights reserved                  #
                #                        -***-                          #
                #########################################################


                         Program Version 6.0.1  -  RELEASE   -


 With contributions from (in alphabetic order):
[Max-Planck-Institut fuer Kohlenforschung]                               
  Daniel Aravena         : Magnetic Suceptibility                        
  Michael Atanasov       : Ab Initio Ligand Field Theory (pilot matlab implementation)
  Alexander A. Auer      : GIAO ZORA, VPT2 properties, NMR spectrum      
  Ute Becker             : All parallelization in ORCA, NUMFREQ, NUMCALC 
  Giovanni Bistoni       : ED, misc. LED, open-shell LED, HFLD           
  Martin Brehm           : Molecular dynamics                            
  Dmytro Bykov           : pre 5.0 version of the SCF Hessian            
  Marcos Casanova-Páez   : Triplet and SCS-CIS(D). UHF-(DLPNO)-IP/EA/STEOM-CCSD. UHF-CVS-IP/STEOM-CCSD   
  Vijay G. Chilkuri      : MRCI spin determinant printing, contributions to CSF-ICE 
  Pauline Colinet        : FMM embedding                                 
  Dipayan Datta          : RHF DLPNO-CCSD density                        
  Achintya Kumar Dutta   : EOM-CC, STEOM-CC                              
  Nicolas Foglia         : Exact transition moments, OPA infrastructure, MCD improvements    
  Dmitry Ganyushin       : Spin-Orbit,Spin-Spin,Magnetic field MRCI      
  Miquel Garcia-Rates    : C-PCM and meta-GGA Hessian, CCSD/C-PCM, Gaussian charge scheme 
  Tiago L. C. Gouveia    : GS-ROHF, GS-ROCIS                             
  Yang Guo               : DLPNO-NEVPT2, F12-NEVPT2, CIM, IAO-localization        
  Andreas Hansen         : Spin unrestricted coupled pair/coupled cluster methods 
  Ingolf Harden          : AUTO-CI MPn and infrastructure                
  Benjamin Helmich-Paris : MC-RPA, TRAH-(SCF,CASSCF), AVAS, COSX integrals, SCF dyn. polar. 
  Lee Huntington         : MR-EOM, pCC                                   
  Robert Izsak           : Overlap fitted RIJCOSX, COSX-SCS-MP3, EOM     
  Riya Kayal             : Wick's Theorem for AUTO-CI, AUTO-CI UHF-CCSDT 
  Emily Kempfer          : AUTO-CI, RHF CISDT and CCSDT                  
  Christian Kollmar      : KDIIS, OOCD, Brueckner-CCSD(T), CCSD density, CASPT2, CASPT2-K, improved NEVPT2 
  Axel Koslowski         : Symmetry handling                             
  Simone Kossmann        : meta-GGA functionals, TD-DFT gradient, OOMP2, (MP2 Hessian; deprecated post 5.0) 
  Lucas Lang             : DCDCAS                                        
  Marvin Lechner         : AUTO-CI (C++ implementation), FIC-MRCC        
  Spencer Leger          : CASSCF response                               
  Dagmar Lenk            : GEPOL surface, SMD, ORCA-2-JSON               
  Dimitrios Liakos       : Extrapolation schemes; Compound Job, initial MDCI parallelization 
  Dimitrios Manganas     : Further ROCIS development; embedding schemes. LFT, Crystal Embedding 
  Dimitrios Pantazis     : SARC Basis sets                               
  Anastasios Papadopoulos: AUTO-CI, single reference methods and gradients 
  Taras Petrenko         : pre 6.0 DFT Hessian and TD-DFT gradient, (ASA, deprecated), ECA, 1-Electron XAS/XES, NRVS 
  Peter Pinski           : DLPNO-MP2, DLPNO-MP2 Gradient                 
  Christoph Reimann      : Effective Core Potentials                     
  Marius Retegan         : Local ZFS, SOC                                
  Christoph Riplinger    : Optimizer, TS searches, QM/MM, DLPNO-CCSD(T), (RO)-DLPNO pert. Triples 
  Michael Roemelt        : Original ROCIS implementation                 
  Masaaki Saitow         : Open-shell DLPNO-CCSD energy and density      
  Barbara Sandhoefer     : DKH picture change effects                    
  Kantharuban Sivalingam : CASSCF convergence/infrastructure, NEVPT2 and variants, FIC-MRCI 
  Bernardo de Souza      : ESD, SOC TD-DFT                               
  Georgi L. Stoychev     : AutoAux, RI-MP2 NMR, DLPNO-MP2 response, X2C  
  Van Anh Tran           : RI-MP2 g-tensors                              
  Willem Van den Heuvel  : Paramagnetic NMR                              
  Zikuan Wang            : NOTCH, Electric field optimization            
  Frank Wennmohs         : Technical directorship and infrastructure     
  Hang Xu                : AUTO-CI-Response properties                   
                                                                         
[FACCTs GmbH]                                                            
  Markus Bursch, Miquel Garcia-Rates, Christoph Riplinger, Bernardo de Souza, Georgi L. Stoychev 
                                                                 
  APM, Basis sets (HGBS, AHGBS, def-TZVP (Ac-Lr), def2-XVPD (La-Lu)), CI-OPT, improved COSX, DLPNO-Multilevel,           
  DOCKER, DRACO, updates on ESD, GOAT, IRC, LR-CPCM, MBIS, meta-GGA TD-DFT gradient, ML-optimized integration grids, 
  MM, NACMEs, nearIR, NEB, NEB-TS, NL-DFT gradient (VV10), 2- and 3-layer-ONIOM, interface openCOSMO-RS, QMMM,   
  Crystal-QMMM, SF, symmetry and pop. for TD-DFT, r2SCAN hybrids, SOLVATOR                                   
                                                                         
[Other institutions]                                                     
  V. Asgeirsson          : NEB                                           
  Christoph Bannwarth    : sTDA-DFT, sTD-DFT, PBEh-3c, B97-3c, D3        
  Sebastian Ehlert       : rSCAN, r2SCAN, r2SCAN-3c, D4, dhf basis sets  
  Marvin Friede          : D4 for Fr, Ra, Ac-Lr                          
  Lars Goerigk           : TD-DFT with DH, B97 family of functionals     
  Stefan Grimme          : VdW corrections, initial TS optimization, DFT functionals, gCP, sTDA/sTD-DF 
  Waldemar Hujo          : DFT-NL                                        
  H. Jonsson             : NEB                                           
  Holger Kruse           : gCP                                           
  Marcel Mueller         : wB97X-3c, vDZP basis set                      
  Hagen Neugebauer       : wr2SCAN                                       
  Tobias Risthaus        : range-separated hybrid DFT                    
  Lukas Wittmann         : regularized MP2, r2SCAN double-hybrids, wr2SCAN        
                                                                         
We gratefully acknowledge several colleagues who have allowed us to      
interface, adapt or use parts of their codes:                            
  Ed Valeev, F. Pavosevic, A. Kumar             : LibInt (2-el integral package), F12 methods 
  Garnet Chan, S. Sharma, J. Yang, R. Olivares  : DMRG                   
  Ulf Ekstrom                                   : XCFun DFT Library      
  Mihaly Kallay                                 : mrcc  (arbitrary order and MRCC methods)
  Frank Weinhold                                : gennbo (NPA and NBO analysis)           
  Simon Mueller                                 : openCOSMO-RS                            
  Christopher J. Cramer and Donald G. Truhlar   : smd solvation model                     
  S Lehtola, MJT Oliveira, MAL Marques          : LibXC Library                           
  Liviu Ungur et al                             : ANISO software                          


 Your calculation uses the libint2 library for the computation of 2-el integrals
 For citations please refer to: http://libint.valeyev.net

 Your ORCA version has been built with support for libXC version: 6.2.2
 For citations please refer to: https://libxc.gitlab.io

 This ORCA versions uses:
   CBLAS   interface :  Fast vector & matrix operations
   LAPACKE interface :  Fast linear algebra routines
   SCALAPACK package :  Parallel linear algebra routines
   Shared memory     :  Shared parallel matrices
   BLAS/LAPACK       :  OpenBLAS 0.3.27  USE64BITINT DYNAMIC_ARCH NO_AFFINITY Cooperlake SINGLE_THREADED
        Core in use  :  Cooperlake
   Copyright (c) 2011-2014, The OpenBLAS Project


XCFun DFT library Copyright 2009-2010 Ulf Ekstrom and contributors.
See http://admol.org/xcfun for more information.
This is free software; see the source code for copying conditions.
There is ABSOLUTELY NO WARRANTY; not even for MERCHANTABILITY or FITNESS FOR A PARTICULAR PURPOSE.
For details see the documentation.
Scientific users of this library should cite U. Ekstrom, L. Visscher, R. Bast, A. J. Thorvaldsen and K. Ruud;
J.Chem.Theor.Comp. 2010, DOI: 10.1021/ct100117s
XCFun Version 0.99 

Warning: RI is on but no J-basis has been assigned. Assigning Def2/J (nothing to worry about!)
================================================================================

----- Orbital basis set information -----
Your calculation utilizes the basis: def2-TZVP(-f)
   F. Weigend and R. Ahlrichs, Phys. Chem. Chem. Phys. 7, 3297 (2005).

----- AuxJ basis set information -----
Your calculation utilizes the auxiliary basis: def2/J
   F. Weigend, Phys. Chem. Chem. Phys. 8, 1057 (2006).

================================================================================
                                        WARNINGS
                       Please study these warnings very carefully!
================================================================================

INFO   : Checking CIS options ...

WARNING: (CIS/TDDFT): Analytic excited state gradients requested
  ===> : turning on equilibrium dielectric conditions.

WARNING: Analytical Frequencies for this method not available!
  ===> : Switching to Numerical Frequencies!

WARNING: Geometry Optimization
  ===> : Switching off AutoStart
         For restart on a previous wavefunction, please use MOREAD

WARNING: CIS/ROCIS methods need fully converged wavefunctions
  ===> : Setting SCFConvForced true
         You can overwrite this default with %scf ConvForced false 


================================================================================
                                       INPUT FILE
================================================================================
NAME = hbq-dcp-es.inp
|  1> ! CAM-B3LYP VERYTIGHTOPT FREQ Def2-TZVP(-f) TightSCF CPCM(Water)
|  2> %tddft
|  3>     NRoots 3
|  4>     IRoot 1
|  5> end 
|  6> 
|  7> * xyz 1 1 
|  8>   C          -4.78808480560714      0.28464755553502      0.47542087229999
|  9>   C          -5.37559216580705     -0.56530891233499      1.39141588983833
| 10>   C          -4.57858801324459     -1.14063663100984      2.36477016381173
| 11>   C          -3.42836057213279      0.60954373957663      0.55550449034129
| 12>   C          -2.62760756947247      0.17636641499776      1.63167800966746
| 13>   O          -2.96363590461254      1.34203894025419     -0.47850964225803
| 14>   C          -3.21271207340936     -0.80938855334671      2.47970214575903
| 15>   C          -2.41419460363969     -1.46544451094742      3.42757557573658
| 16>   C          -1.06567277402161     -1.20212066202789      3.50875527566161
| 17>   C          -1.31160068022918      0.59832499558694      1.90279072897183
| 18>   C          -0.47282942664496     -0.18475392298069      2.73409573243995
| 19>   N          -0.77385559770553      1.78642250560236      1.37161072895686
| 20>   C           0.61505463589614      1.84068575856234      1.21347421061380
| 21>   C           1.44103108037367      0.99276334329809      1.87433450706702
| 22>   C           0.91017946568134      0.03445748620359      2.74429268282884
| 23>   C          -1.89723814357345      0.88422151602863     -1.25323154727340
| 24>   O          -1.33072013162699     -0.15276107912369     -0.99870572063957
| 25>   N          -1.64358610453861      1.71979566166984     -2.25781977671520
| 26>   C          -2.45508094646321      2.87448897777888     -2.60946021062437
| 27>   C          -0.60692375925732      1.36375076204828     -3.21274677818726
| 28>   H          -1.05431238783733      1.00516691441571     -4.14167897765347
| 29>   H           0.02672823598979      0.58934775936796     -2.79602092416904
| 30>   H          -0.00855345597240      2.24753916954123     -3.42899597226670
| 31>   H          -1.79604244973948      3.72054458306972     -2.79850477833790
| 32>   H          -3.13427152709157      3.13100405695376     -1.80785371324591
| 33>   H          -3.02331578951989      2.66272830627081     -3.51695508789446
| 34>   H          -4.99272471178074     -1.85749327079966      3.06093812498080
| 35>   H          -5.34985357079385      0.69052978377338     -0.35461309171236
| 36>   H          -6.42461350346453     -0.81071605010426      1.31775492743161
| 37>   H          -2.86052793399815     -2.21966348077190      4.06153621443242
| 38>   H          -0.44087898215292     -1.76929161183578      4.18581350275175
| 39>   H           0.97714141007594      2.63098155671248      0.57346770166668
| 40>   H           2.50779179071081      1.09205500989933      1.73596706368648
| 41>   H           1.54452878175884     -0.56898268326099      3.37618543236675
| 42>   P          -1.56156760851490      3.30112789707102      1.56149474622341
| 43>   O          -2.96868591153533      3.14222958504993      1.92815867488539
| 44>   O          -1.18440667042950      3.94762425524660      0.19232777789392
| 45>   O          -0.69378846007552      4.12479745534335      2.58139251846271
| 46>   C          -1.29751483593422      5.37945664002644     -0.06288807328482
| 47>   C          -1.04181026394046      4.27589135839452      3.98724790616564
| 48>   C          -0.07525857425403      5.82747376250726     -0.81586777866228
| 49>   H          -1.39694815965882      5.90422250039601      0.88529511143544
| 50>   H          -2.20722736273638      5.51662425615438     -0.64311381396747
| 51>   H           0.82326015204406      5.68466274567933     -0.21628642924296
| 52>   H          -0.16927657665672      6.88767116577165     -1.05258197979190
| 53>   H           0.02908998266474      5.27385890233583     -1.74872910005587
| 54>   C          -0.18178652962943      3.38723383892517      4.84597095194410
| 55>   H          -2.10081025040817      4.05839490680606      4.10698743903915
| 56>   H          -0.87175894762736      5.32770271449812      4.20427062060033
| 57>   H           0.87508589021814      3.60386687145087      4.69348068313785
| 58>   H          -0.36175540526408      2.33448907342367      4.62917220466236
| 59>   H          -0.42222829584306      3.56688865837235      5.89453077511941
| 60> *
| 61> 
| 62> 
| 63>                          ****END OF INPUT****
================================================================================

                       *****************************
                       * Geometry Optimization Run *
                       *****************************

Geometry optimization settings:
Update method            Update   .... BFGS
Choice of coordinates    CoordSys .... (2022) Redundant Internals
Initial Hessian          InHess   .... Almloef's Model
Max. no of cycles        MaxIter  .... 156

Convergence Tolerances:
Energy Change            TolE     ....  2.0000e-07 Eh
Max. Gradient            TolMAXG  ....  3.0000e-05 Eh/bohr
RMS Gradient             TolRMSG  ....  8.0000e-06 Eh/bohr
Max. Displacement        TolMAXD  ....  2.0000e-04 bohr
RMS Displacement         TolRMSD  ....  1.0000e-04 bohr
Strict Convergence                .... False

------------------------------------------------------------------------------
                        ORCA OPTIMIZATION COORDINATE SETUP
------------------------------------------------------------------------------

The optimization will be done in redundant internal coordinates (2022)
Making redundant internal coordinates   ...  (2022 redundants) done
Evaluating the initial hessian          ...  (Almloef) done
Evaluating the coordinates              ...  done
Calculating the B-matrix                .... done
Calculating the G-matrix                .... done
Diagonalizing the G-matrix              .... done
Small eigenvalue found = 1.525e-03
Small eigenvalue found = 4.818e-03
Small eigenvalue found = 5.885e-03
Small eigenvalue found = 6.709e-03
Small eigenvalue found = 8.047e-03
Small eigenvalue found = 1.266e-02
Small eigenvalue found = 1.971e-02
Small eigenvalue found = 2.095e-02
Small eigenvalue found = 2.372e-02
The first mode is                       ....  109
The number of degrees of freedom        ....  150

    -----------------------------------------------------------------
                    Redundant Internal Coordinates


    -----------------------------------------------------------------
         Definition                    Initial Value    Approx d2E/dq
    -----------------------------------------------------------------
      1. B(C   1,C   0)                  1.3808         0.646249   
      2. B(C   2,C   1)                  1.3833         0.640266   
      3. B(C   3,C   0)                  1.4003         0.601612   
      4. B(C   4,C   3)                  1.4096         0.581371   
      5. B(O   5,C   3)                  1.3497         0.648879   
      6. B(C   6,C   4)                  1.4259         0.547589   
      7. B(C   6,C   2)                  1.4102         0.580195   
      8. B(C   7,C   6)                  1.4023         0.597147   
      9. B(C   8,C   7)                  1.3764         0.656837   
     10. B(C   9,C   4)                  1.4083         0.584085   
     11. B(C  10,C   9)                  1.4170         0.565851   
     12. B(C  10,C   8)                  1.4095         0.581676   
     13. B(N  11,C   9)                  1.4082         0.523494   
     14. B(C  12,N  11)                  1.3989         0.541524   
     15. B(C  13,C  12)                  1.3557         0.708677   
     16. B(C  14,C  13)                  1.3989         0.604652   
     17. B(C  14,C  10)                  1.4003         0.601572   
     18. B(C  15,O   5)                  1.3953         0.548711   
     19. B(O  16,C  15)                  1.2087         1.089080   
     20. B(N  17,C  15)                  1.3311         0.694881   
     21. B(C  18,N  17)                  1.4545         0.441584   
     22. B(C  19,N  17)                  1.4537         0.442795   
     23. B(H  20,C  19)                  1.0916         0.357951   
     24. B(H  21,C  19)                  1.0839         0.368238   
     25. B(H  22,C  19)                  1.0890         0.361443   
     26. B(H  23,C  18)                  1.0890         0.361450   
     27. B(H  24,C  18)                  1.0815         0.371503   
     28. B(H  25,C  18)                  1.0915         0.358177   
     29. B(H  26,C   2)                  1.0817         0.371269   
     30. B(H  27,C   0)                  1.0813         0.371750   
     31. B(H  28,C   1)                  1.0799         0.373768   
     32. B(H  29,C   7)                  1.0816         0.371318   
     33. B(H  30,C   8)                  1.0819         0.371008   
     34. B(H  31,C  12)                  1.0795         0.374286   
     35. B(H  32,C  13)                  1.0803         0.373205   
     36. B(H  33,C  14)                  1.0797         0.373939   
     37. B(P  34,N  11)                  1.7178         0.564113   
     38. B(O  35,P  34)                  1.4628         1.439733   
     39. B(O  36,P  34)                  1.5604         1.005816   
     40. B(O  37,P  34)                  1.5722         0.963289   
     41. B(C  38,O  36)                  1.4588         0.434633   
     42. B(C  39,O  37)                  1.4562         0.438869   
     43. B(C  40,C  38)                  1.5039         0.411221   
     44. B(H  41,C  38)                  1.0883         0.362404   
     45. B(H  42,C  38)                  1.0877         0.363179   
     46. B(H  43,C  40)                  1.0896         0.360629   
     47. B(H  44,C  40)                  1.0904         0.359620   
     48. B(H  45,H  23)                  2.6165         0.000253   
     49. B(H  45,C  40)                  1.0898         0.360399   
     50. B(C  46,C  39)                  1.5056         0.408644   
     51. B(H  47,C  39)                  1.0877         0.363136   
     52. B(H  48,C  39)                  1.0873         0.363627   
     53. B(H  49,C  46)                  1.0896         0.360669   
     54. B(H  50,C  46)                  1.0898         0.360366   
     55. B(H  51,C  46)                  1.0907         0.359212   
     56. A(C   1,C   0,C   3)          121.2005         0.434954   
     57. A(C   1,C   0,H  27)          121.2795         0.357324   
     58. A(C   3,C   0,H  27)          117.4693         0.353012   
     59. A(C   0,C   1,C   2)          118.5310         0.439865   
     60. A(C   0,C   1,H  28)          120.5285         0.357653   
     61. A(C   2,C   1,H  28)          120.8753         0.357088   
     62. A(C   1,C   2,H  26)          120.5234         0.356681   
     63. A(C   6,C   2,H  26)          118.2981         0.350779   
     64. A(C   1,C   2,C   6)          121.1783         0.431406   
     65. A(C   4,C   3,O   5)          123.7843         0.429773   
     66. A(C   0,C   3,O   5)          114.6104         0.432423   
     67. A(C   0,C   3,C   4)          121.5990         0.426769   
     68. A(C   6,C   4,C   9)          118.4295         0.420000   
     69. A(C   3,C   4,C   9)          125.8539         0.424516   
     70. A(C   3,C   4,C   6)          115.6830         0.419652   
     71. A(C   3,O   5,C  15)          120.6928         0.422575   
     72. A(C   4,C   6,C   7)          119.4564         0.421662   
     73. A(C   2,C   6,C   7)          119.7845         0.426045   
     74. A(C   2,C   6,C   4)          120.7553         0.419500   
     75. A(C   6,C   7,H  29)          119.1708         0.352498   
     76. A(C   6,C   7,C   8)          120.5480         0.435644   
     77. A(C   8,C   7,H  29)          120.2066         0.358242   
     78. A(C  10,C   8,H  30)          118.6498         0.350888   
     79. A(C   7,C   8,H  30)          120.1610         0.358191   
     80. A(C   7,C   8,C  10)          121.1833         0.433591   
     81. A(C   4,C   9,C  10)          120.0327         0.422467   
     82. A(C  10,C   9,N  11)          117.4859         0.411626   
     83. A(C   4,C   9,N  11)          122.4809         0.413950   
     84. A(C   9,C  10,C  14)          120.1582         0.424701   
     85. A(C   8,C  10,C  14)          121.6286         0.426804   
     86. A(C   8,C  10,C   9)          118.1879         0.422155   
     87. A(C   9,N  11,P  34)          121.8137         0.436426   
     88. A(C   9,N  11,C  12)          117.0335         0.405805   
     89. A(C  12,N  11,P  34)          115.6938         0.439098   
     90. A(N  11,C  12,H  31)          115.3686         0.345071   
     91. A(N  11,C  12,C  13)          121.7038         0.431099   
     92. A(C  13,C  12,H  31)          122.8568         0.363405   
     93. A(C  12,C  13,H  32)          118.7974         0.363226   
     94. A(C  12,C  13,C  14)          120.0263         0.442654   
     95. A(C  14,C  13,H  32)          121.1543         0.353548   
     96. A(C  10,C  14,H  33)          119.8029         0.353360   
     97. A(C  10,C  14,C  13)          118.5218         0.429779   
     98. A(C  13,C  14,H  33)          121.5908         0.353665   
     99. A(O  16,C  15,N  17)          127.4564         0.484650   
    100. A(O   5,C  15,N  17)          111.0210         0.427787   
    101. A(O   5,C  15,O  16)          121.5176         0.464056   
    102. A(C  18,N  17,C  19)          115.6894         0.380260   
    103. A(C  15,N  17,C  19)          118.5491         0.411734   
    104. A(C  15,N  17,C  18)          125.0654         0.411534   
    105. A(N  17,C  18,H  25)          109.7221         0.331093   
    106. A(H  23,C  18,H  24)          108.9325         0.292441   
    107. A(H  23,C  18,H  25)          108.7519         0.290766   
    108. A(N  17,C  18,H  24)          111.0684         0.333103   
    109. A(N  17,C  18,H  23)          108.7301         0.331592   
    110. A(H  24,C  18,H  25)          109.5927         0.292022   
    111. A(H  21,C  19,H  22)          109.5696         0.292034   
    112. A(H  20,C  19,H  22)          108.8324         0.290736   
    113. A(N  17,C  19,H  22)          108.8752         0.331741   
    114. A(H  20,C  19,H  21)          109.3941         0.291588   
    115. A(N  17,C  19,H  21)          109.8351         0.332767   
    116. A(N  17,C  19,H  20)          110.3147         0.331209   
    117. A(N  11,P  34,O  36)           99.0619         0.526629   
    118. A(N  11,P  34,O  35)          111.9029         0.563636   
    119. A(O  36,P  34,O  37)          102.6353         0.582974   
    120. A(O  35,P  34,O  37)          115.1678         0.624747   
    121. A(N  11,P  34,O  37)          106.2941         0.522370   
    122. A(O  35,P  34,O  36)          119.8326         0.630011   
    123. A(P  34,O  36,C  38)          122.7809         0.468683   
    124. A(P  34,O  37,C  39)          123.2820         0.465815   
    125. A(H  41,C  38,H  42)          109.1205         0.291521   
    126. A(C  40,C  38,H  42)          112.0301         0.329952   
    127. A(O  36,C  38,H  42)          106.3770         0.330983   
    128. A(C  40,C  38,H  41)          111.5217         0.329836   
    129. A(O  36,C  38,H  41)          109.1442         0.330867   
    130. A(O  36,C  38,C  40)          108.4807         0.376765   
    131. A(C  46,C  39,H  48)          111.5789         0.329677   
    132. A(O  37,C  39,H  48)          104.8144         0.331583   
    133. A(C  46,C  39,H  47)          112.0450         0.329603   
    134. A(O  37,C  39,H  47)          108.5556         0.331509   
    135. A(O  37,C  39,C  46)          110.6643         0.376987   
    136. A(H  47,C  39,H  48)          108.8876         0.291670   
    137. A(H  44,C  40,H  45)          108.4437         0.290816   
    138. A(H  43,C  40,H  45)          108.9959         0.290944   
    139. A(C  38,C  40,H  45)          110.7986         0.329534   
    140. A(H  43,C  40,H  44)          108.5426         0.290846   
    141. A(C  38,C  40,H  44)          109.1649         0.329416   
    142. A(C  38,C  40,H  43)          110.8331         0.329568   
    143. A(H  50,C  46,H  51)          108.2984         0.290760   
    144. A(H  49,C  46,H  51)          108.3993         0.290799   
    145. A(C  39,C  46,H  51)          108.9769         0.329012   
    146. A(H  49,C  46,H  50)          108.9296         0.290945   
    147. A(C  39,C  46,H  50)          111.2464         0.329187   
    148. A(C  39,C  46,H  49)          110.9102         0.329232   
    149. D(C   2,C   1,C   0,C   3)     -2.7364         0.029055   
    150. D(H  28,C   1,C   0,H  27)     -2.4807         0.029055   
    151. D(C   2,C   1,C   0,H  27)    174.6088         0.029055   
    152. D(H  28,C   1,C   0,C   3)   -179.8259         0.029055   
    153. D(C   6,C   2,C   1,H  28)   -179.0193         0.028484   
    154. D(H  26,C   2,C   1,C   0)   -176.2599         0.028484   
    155. D(C   6,C   2,C   1,C   0)      3.9018         0.028484   
    156. D(H  26,C   2,C   1,H  28)      0.8191         0.028484   
    157. D(C   4,C   3,C   0,H  27)    177.1937         0.024958   
    158. D(O   5,C   3,C   0,C   1)    173.7542         0.024958   
    159. D(O   5,C   3,C   0,H  27)     -3.6887         0.024958   
    160. D(C   4,C   3,C   0,C   1)     -5.3634         0.024958   
    161. D(C   6,C   4,C   3,O   5)   -167.4391         0.023226   
    162. D(C   9,C   4,C   3,C   0)   -170.5579         0.023226   
    163. D(C   6,C   4,C   3,C   0)     11.5957         0.023226   
    164. D(C   9,C   4,C   3,O   5)     10.4073         0.023226   
    165. D(C  15,O   5,C   3,C   4)     56.4565         0.031108   
    166. D(C  15,O   5,C   3,C   0)   -122.6392         0.031108   
    167. D(C   7,C   6,C   4,C   9)     -9.0653         0.020507   
    168. D(C   2,C   6,C   4,C   9)    171.6483         0.020507   
    169. D(C   2,C   6,C   4,C   3)    -10.3365         0.020507   
    170. D(C   7,C   6,C   4,C   3)    168.9499         0.020507   
    171. D(C   7,C   6,C   2,H  26)      3.7504         0.023128   
    172. D(C   4,C   6,C   2,H  26)   -176.9655         0.023128   
    173. D(C   4,C   6,C   2,C   1)      2.8763         0.023128   
    174. D(C   7,C   6,C   2,C   1)   -176.4077         0.023128   
    175. D(H  29,C   7,C   6,C   4)   -179.3753         0.024570   
    176. D(H  29,C   7,C   6,C   2)     -0.0819         0.024570   
    177. D(C   8,C   7,C   6,C   4)     -2.5092         0.024570   
    178. D(C   8,C   7,C   6,C   2)    176.7842         0.024570   
    179. D(C  10,C   8,C   7,C   6)      5.9191         0.030084   
    180. D(H  30,C   8,C   7,H  29)      1.8540         0.030084   
    181. D(H  30,C   8,C   7,C   6)   -174.9796         0.030084   
    182. D(C  10,C   8,C   7,H  29)   -177.2473         0.030084   
    183. D(N  11,C   9,C   4,C   6)   -162.8002         0.023454   
    184. D(N  11,C   9,C   4,C   3)     19.4068         0.023454   
    185. D(C  10,C   9,C   4,C   6)     17.4395         0.023454   
    186. D(C  10,C   9,C   4,C   3)   -160.3535         0.023454   
    187. D(C  14,C  10,C   9,N  11)    -15.7174         0.021951   
    188. D(C  14,C  10,C   9,C   4)    164.0547         0.021951   
    189. D(C   8,C  10,C   9,N  11)    166.0787         0.021951   
    190. D(C   8,C  10,C   9,C   4)    -14.1492         0.021951   
    191. D(C  14,C  10,C   8,H  30)      5.0698         0.023252   
    192. D(C  14,C  10,C   8,C   7)   -175.8156         0.023252   
    193. D(C   9,C  10,C   8,H  30)   -176.7541         0.023252   
    194. D(C   9,C  10,C   8,C   7)      2.3605         0.023252   
    195. D(P  34,N  11,C   9,C  10)   -126.7066         0.021739   
    196. D(P  34,N  11,C   9,C   4)     53.5273         0.021739   
    197. D(C  12,N  11,C   9,C  10)     26.0837         0.021739   
    198. D(C  12,N  11,C   9,C   4)   -153.6824         0.021739   
    199. D(H  31,C  12,N  11,P  34)    -41.2732         0.023335   
    200. D(H  31,C  12,N  11,C   9)    164.2698         0.023335   
    201. D(C  13,C  12,N  11,P  34)    135.7485         0.023335   
    202. D(C  13,C  12,N  11,C   9)    -18.7085         0.023335   
    203. D(H  32,C  13,C  12,H  31)     -1.7132         0.035446   
    204. D(H  32,C  13,C  12,N  11)   -178.5093         0.035446   
    205. D(C  14,C  13,C  12,H  31)    176.6024         0.035446   
    206. D(C  14,C  13,C  12,N  11)     -0.1938         0.035446   
    207. D(C  10,C  14,C  13,C  12)     11.1710         0.025225   
    208. D(H  33,C  14,C  10,C   9)   -179.6881         0.024955   
    209. D(H  33,C  14,C  10,C   8)     -1.5474         0.024955   
    210. D(C  13,C  14,C  10,C   9)     -2.9774         0.024955   
    211. D(C  13,C  14,C  10,C   8)    175.1633         0.024955   
    212. D(H  33,C  14,C  13,H  32)      6.0951         0.025225   
    213. D(H  33,C  14,C  13,C  12)   -172.1800         0.025225   
    214. D(C  10,C  14,C  13,H  32)   -170.5540         0.025225   
    215. D(N  17,C  15,O   5,C   3)    176.7549         0.021771   
    216. D(O  16,C  15,O   5,C   3)     -2.4914         0.021771   
    217. D(C  19,N  17,C  15,O  16)      2.4376         0.039899   
    218. D(C  19,N  17,C  15,O   5)   -176.7530         0.039899   
    219. D(C  18,N  17,C  15,O  16)    172.4404         0.039899   
    220. D(C  18,N  17,C  15,O   5)     -6.7502         0.039899   
    221. D(H  25,C  18,N  17,C  15)   -106.0207         0.016628   
    222. D(H  24,C  18,N  17,C  19)   -174.4410         0.016628   
    223. D(H  24,C  18,N  17,C  15)     15.3014         0.016628   
    224. D(H  23,C  18,N  17,C  19)    -54.5890         0.016628   
    225. D(H  23,C  18,N  17,C  15)    135.1534         0.016628   
    226. D(H  22,C  19,N  17,C  15)   -137.1576         0.016720   
    227. D(H  21,C  19,N  17,C  18)    171.8904         0.016720   
    228. D(H  21,C  19,N  17,C  15)    -17.1816         0.016720   
    229. D(H  20,C  19,N  17,C  18)    -67.4486         0.016720   
    230. D(H  20,C  19,N  17,C  15)    103.4794         0.016720   
    231. D(O  37,P  34,N  11,C   9)    108.6041         0.006550   
    232. D(O  36,P  34,N  11,C  12)     61.5799         0.006550   
    233. D(O  36,P  34,N  11,C   9)   -145.2909         0.006550   
    234. D(O  35,P  34,N  11,C  12)   -171.0421         0.006550   
    235. D(O  35,P  34,N  11,C   9)    -17.9129         0.006550   
    236. D(C  38,O  36,P  34,O  37)    -54.5024         0.017359   
    237. D(C  38,O  36,P  34,O  35)     74.6183         0.017359   
    238. D(C  38,O  36,P  34,N  11)   -163.5843         0.017359   
    239. D(C  39,O  37,P  34,O  36)    155.4317         0.015945   
    240. D(C  39,O  37,P  34,O  35)     23.4708         0.015945   
    241. D(C  39,O  37,P  34,N  11)   -101.0538         0.015945   
    242. D(H  42,C  38,O  36,P  34)   -101.8402         0.014878   
    243. D(H  41,C  38,O  36,P  34)     15.7674         0.014878   
    244. D(C  40,C  38,O  36,P  34)    137.4671         0.014878   
    245. D(H  48,C  39,O  37,P  34)   -136.0936         0.015168   
    246. D(H  47,C  39,O  37,P  34)    -19.8630         0.015168   
    247. D(C  46,C  39,O  37,P  34)    103.4863         0.015168   
    248. D(H  44,C  40,C  38,H  42)     60.3106         0.013393   
    249. D(H  44,C  40,C  38,H  41)    -62.3326         0.013393   
    250. D(H  44,C  40,C  38,O  36)    177.4361         0.013393   
    251. D(H  43,C  40,C  38,H  42)    179.8137         0.013393   
    252. D(H  43,C  40,C  38,H  41)     57.1705         0.013393   
    253. D(H  43,C  40,C  38,O  36)    -63.0608         0.013393   
    254. D(H  50,C  46,C  39,H  48)    179.5870         0.013231   
    255. D(H  50,C  46,C  39,H  47)     57.1940         0.013231   
    256. D(H  50,C  46,C  39,O  37)    -64.1154         0.013231   
    257. D(H  49,C  46,C  39,H  48)    -59.0034         0.013231   
    258. D(H  49,C  46,C  39,H  47)    178.6036         0.013231   
    259. D(H  49,C  46,C  39,O  37)     57.2942         0.013231   
    -----------------------------------------------------------------

Number of atoms                         .... 52
Number of degrees of freedom            .... 259


         *************************************************************
         *                GEOMETRY OPTIMIZATION CYCLE   1            *
         *************************************************************
---------------------------------
CARTESIAN COORDINATES (ANGSTROEM)
---------------------------------
  C     -4.788085    0.284648    0.475421
  C     -5.375592   -0.565309    1.391416
  C     -4.578588   -1.140637    2.364770
  C     -3.428361    0.609544    0.555504
  C     -2.627608    0.176366    1.631678
  O     -2.963636    1.342039   -0.478510
  C     -3.212712   -0.809389    2.479702
  C     -2.414195   -1.465445    3.427576
  C     -1.065673   -1.202121    3.508755
  C     -1.311601    0.598325    1.902791
  C     -0.472829   -0.184754    2.734096
  N     -0.773856    1.786423    1.371611
  C      0.615055    1.840686    1.213474
  C      1.441031    0.992763    1.874335
  C      0.910179    0.034457    2.744293
  C     -1.897238    0.884222   -1.253232
  O     -1.330720   -0.152761   -0.998706
  N     -1.643586    1.719796   -2.257820
  C     -2.455081    2.874489   -2.609460
  C     -0.606924    1.363751   -3.212747
  H     -1.054312    1.005167   -4.141679
  H      0.026728    0.589348   -2.796021
  H     -0.008553    2.247539   -3.428996
  H     -1.796042    3.720545   -2.798505
  H     -3.134272    3.131004   -1.807854
  H     -3.023316    2.662728   -3.516955
  H     -4.992725   -1.857493    3.060938
  H     -5.349854    0.690530   -0.354613
  H     -6.424614   -0.810716    1.317755
  H     -2.860528   -2.219663    4.061536
  H     -0.440879   -1.769292    4.185814
  H      0.977141    2.630982    0.573468
  H      2.507792    1.092055    1.735967
  H      1.544529   -0.568983    3.376185
  P     -1.561568    3.301128    1.561495
  O     -2.968686    3.142230    1.928159
  O     -1.184407    3.947624    0.192328
  O     -0.693788    4.124797    2.581393
  C     -1.297515    5.379457   -0.062888
  C     -1.041810    4.275891    3.987248
  C     -0.075259    5.827474   -0.815868
  H     -1.396948    5.904223    0.885295
  H     -2.207227    5.516624   -0.643114
  H      0.823260    5.684663   -0.216286
  H     -0.169277    6.887671   -1.052582
  H      0.029090    5.273859   -1.748729
  C     -0.181787    3.387234    4.845971
  H     -2.100810    4.058395    4.106987
  H     -0.871759    5.327703    4.204271
  H      0.875086    3.603867    4.693481
  H     -0.361755    2.334489    4.629172
  H     -0.422228    3.566889    5.894531

----------------------------
CARTESIAN COORDINATES (A.U.)
----------------------------
  NO LB      ZA    FRAG     MASS         X           Y           Z
   0 C     6.0000    0    12.011   -9.048169    0.537906    0.898415
   1 C     6.0000    0    12.011  -10.158397   -1.068279    2.629395
   2 C     6.0000    0    12.011   -8.652277   -2.155491    4.468768
   3 C     6.0000    0    12.011   -6.478663    1.151871    1.049751
   4 C     6.0000    0    12.011   -4.965459    0.333284    3.083425
   5 O     8.0000    0    15.999   -5.600460    2.536086   -0.904252
   6 C     6.0000    0    12.011   -6.071146   -1.529523    4.685958
   7 C     6.0000    0    12.011   -4.562167   -2.769289    6.477179
   8 C     6.0000    0    12.011   -2.013830   -2.271679    6.630587
   9 C     6.0000    0    12.011   -2.478566    1.130670    3.595753
  10 C     6.0000    0    12.011   -0.893518   -0.349134    5.166692
  11 N     7.0000    0    14.007   -1.462375    3.375849    2.591969
  12 C     6.0000    0    12.011    1.162285    3.478392    2.293134
  13 C     6.0000    0    12.011    2.723154    1.876051    3.541979
  14 C     6.0000    0    12.011    1.719990    0.065115    5.185962
  15 C     6.0000    0    12.011   -3.585261    1.670937   -2.368264
  16 O     8.0000    0    15.999   -2.514697   -0.288677   -1.887280
  17 N     7.0000    0    14.007   -3.105928    3.249943   -4.266661
  18 C     6.0000    0    12.011   -4.639431    5.431997   -4.931165
  19 C     6.0000    0    12.011   -1.146920    2.577115   -6.071212
  20 H     1.0000    0     1.008   -1.992362    1.899490   -7.826639
  21 H     1.0000    0     1.008    0.050509    1.113706   -5.283714
  22 H     1.0000    0     1.008   -0.016164    4.247234   -6.479863
  23 H     1.0000    0     1.008   -3.394028    7.030810   -5.288408
  24 H     1.0000    0     1.008   -5.922915    5.916740   -3.416348
  25 H     1.0000    0     1.008   -5.713239    5.031827   -6.646082
  26 H     1.0000    0     1.008   -9.434882   -3.510154    5.784335
  27 H     1.0000    0     1.008  -10.109758    1.304912   -0.670122
  28 H     1.0000    0     1.008  -12.140760   -1.532031    2.490196
  29 H     1.0000    0     1.008   -5.405614   -4.194556    7.675191
  30 H     1.0000    0     1.008   -0.833141   -3.343477    7.910041
  31 H     1.0000    0     1.008    1.846530    4.971835    1.083697
  32 H     1.0000    0     1.008    4.739040    2.063685    3.280502
  33 H     1.0000    0     1.008    2.918736   -1.075221    6.380066
  34 P    15.0000    0    30.974   -2.950935    6.238228    2.950797
  35 O     8.0000    0    15.999   -5.610003    5.937953    3.643692
  36 O     8.0000    0    15.999   -2.238204    7.459929    0.363447
  37 O     8.0000    0    15.999   -1.311070    7.794738    4.878125
  38 C     6.0000    0    12.011   -2.451948   10.165700   -0.118841
  39 C     6.0000    0    12.011   -1.968736    8.080264    7.534807
  40 C     6.0000    0    12.011   -0.142218   11.012329   -1.541767
  41 H     1.0000    0     1.008   -2.639849   11.157364    1.672965
  42 H     1.0000    0     1.008   -4.171055   10.424909   -1.215309
  43 H     1.0000    0     1.008    1.555736   10.742456   -0.408722
  44 H     1.0000    0     1.008   -0.319886   13.015812   -1.989092
  45 H     1.0000    0     1.008    0.054972    9.966149   -3.304619
  46 C     6.0000    0    12.011   -0.343527    6.400944    9.157558
  47 H     1.0000    0     1.008   -3.969956    7.669255    7.761081
  48 H     1.0000    0     1.008   -1.647386   10.067899    7.944920
  49 H     1.0000    0     1.008    1.653673    6.810321    8.869393
  50 H     1.0000    0     1.008   -0.683619    4.411545    8.747868
  51 H     1.0000    0     1.008   -0.797896    6.740443   11.139049

--------------------------------
INTERNAL COORDINATES (ANGSTROEM)
--------------------------------
 C      0   0   0     0.000000000000     0.00000000     0.00000000
 C      1   0   0     1.380810547366     0.00000000     0.00000000
 C      2   1   0     1.383342381965   118.53100731     0.00000000
 C      1   2   3     1.400293150516   121.20047466   357.26356104
 C      4   1   2     1.409608956235   121.59903315   354.63655042
 O      4   1   2     1.349704953696   114.61037772   173.75417011
 C      3   2   1     1.410160179714   121.17833712     3.90176177
 C      7   3   2     1.402320793645   119.78447556   183.59227126
 C      8   7   3     1.376386834450   120.54800817   176.78421605
 C      5   4   1     1.408341323273   125.85388487   189.44207368
 C      9   8   7     1.409466467906   121.18325762     5.91911857
 N     10   5   4     1.408153989981   122.48090935    19.40684179
 C     12  10   5     1.398936487500   117.03345075   206.31757070
 C     13  12  10     1.355708611969   121.70378428   341.29153278
 C     14  13  12     1.398921291616   120.02630934   359.80619550
 C      6   4   1     1.395347630085   120.69279359   237.36079983
 O     16   6   4     1.208742717427   121.51756869   357.50862633
 N     16   6   4     1.331060111529   111.02102722   176.75493815
 C     18  16   6     1.454472938042   125.06540622   353.24982987
 C     18  16   6     1.453727060631   118.54909362   183.24702866
 H     20  18  16     1.091629054199   110.31465257   103.47936523
 H     20  18  16     1.083916647648   109.83505108   342.81837539
 H     20  18  16     1.088986998551   108.87519044   222.84238511
 H     19  18  16     1.088981026460   108.73007028   135.15336664
 H     19  18  16     1.081514127184   111.06844911    15.30137090
 H     19  18  16     1.091457910839   109.72206494   253.97932781
 H      3   2   1     1.081685017574   120.52340316   183.74009015
 H      1   2   3     1.081332932150   121.27950827   174.60879040
 H      2   1   3     1.079859420254   120.52850652   182.91054358
 H      8   7   3     1.081649567858   119.17076052   359.91811495
 H      9   8   7     1.081877077830   120.16101664   185.02044617
 H     13  12  10     1.079482566837   115.36857411   164.26984161
 H     14  13  12     1.080269779992   118.79744761   181.49065513
 H     15  14  13     1.079734939626   121.59079055   187.82002472
 P     12  10   5     1.717812147742   121.81366487    53.52728996
 O     35  12  10     1.462762123122   111.90290544   342.08710996
 O     35  12  10     1.560392931770    99.06185244   214.70911781
 O     35  12  10     1.572152555419   106.29409438   108.60407661
 C     37  35  12     1.458791474441   122.78094827   196.41571814
 C     38  35  12     1.456151748493   123.28204231   258.94620715
 C     39  37  35     1.503864404779   108.48071938   137.46709195
 H     39  37  35     1.088263546142   109.14421298    15.76739640
 H     39  37  35     1.087682741651   106.37696157   258.15980378
 H     41  39  37     1.089600239816   110.83305329   296.93919727
 H     41  39  37     1.090363027473   109.16491787   177.43608595
 H     41  39  37     1.089774416880   110.79858587    58.07604967
 C     40  38  35     1.505575730357   110.66433453   103.48631850
 H     40  38  35     1.087714683879   108.55560301   340.13701651
 H     40  38  35     1.087346972033   104.81441873   223.90643608
 H     47  40  38     1.089569853060   110.91017690    57.29418620
 H     47  40  38     1.089799079790   111.24635364   295.88460544
 H     47  40  38     1.090672178002   108.97687058   176.54897363

---------------------------
INTERNAL COORDINATES (A.U.)
---------------------------
 C      0   0   0     0.000000000000     0.00000000     0.00000000
 C      1   0   0     2.609353777352     0.00000000     0.00000000
 C      2   1   0     2.614138251360   118.53100731     0.00000000
 C      1   2   3     2.646170561680   121.20047466   357.26356104
 C      4   1   2     2.663774883207   121.59903315   354.63655042
 O      4   1   2     2.550572724083   114.61037772   173.75417011
 C      3   2   1     2.664816544620   121.17833712     3.90176177
 C      7   3   2     2.650002251891   119.78447556   183.59227126
 C      8   7   3     2.600994171445   120.54800817   176.78421605
 C      5   4   1     2.661379404069   125.85388487   189.44207368
 C      9   8   7     2.663505619288   121.18325762     5.91911857
 N     10   5   4     2.661025395452   122.48090935    19.40684179
 C     12  10   5     2.643606840125   117.03345075   206.31757070
 C     13  12  10     2.561917994020   121.70378428   341.29153278
 C     14  13  12     2.643578124067   120.02630934   359.80619550
 C      6   4   1     2.636824882477   120.69279359   237.36079983
 O     16   6   4     2.284192702308   121.51756869   357.50862633
 N     16   6   4     2.515339078576   111.02102722   176.75493815
 C     18  16   6     2.748555522099   125.06540622   353.24982987
 C     18  16   6     2.747146018063   118.54909362   183.24702866
 H     20  18  16     2.062879952267   110.31465257   103.47936523
 H     20  18  16     2.048305616052   109.83505108   342.81837539
 H     20  18  16     2.057887190662   108.87519044   222.84238511
 H     19  18  16     2.057875905046   108.73007028   135.15336664
 H     19  18  16     2.043765510344   111.06844911    15.30137090
 H     19  18  16     2.062556538187   109.72206494   253.97932781
 H      3   2   1     2.044088446380   120.52340316   183.74009015
 H      1   2   3     2.043423101354   121.27950827   174.60879040
 H      2   1   3     2.040638567415   120.52850652   182.91054358
 H      8   7   3     2.044021456126   119.17076052   359.91811495
 H      9   8   7     2.044451387666   120.16101664   185.02044617
 H     13  12  10     2.039926417664   115.36857411   164.26984161
 H     14  13  12     2.041414034936   118.79744761   181.49065513
 H     15  14  13     2.040403333120   121.59079055   187.82002472
 P     12  10   5     3.246194508756   121.81366487    53.52728996
 O     35  12  10     2.764219811774   111.90290544   342.08710996
 O     35  12  10     2.948715302351    99.06185244   214.70911781
 O     35  12  10     2.970937770486   106.29409438   108.60407661
 C     37  35  12     2.756716373192   122.78094827   196.41571814
 C     38  35  12     2.751728014082   123.28204231   258.94620715
 C     39  37  35     2.841891867586   108.48071938   137.46709195
 H     39  37  35     2.056520063739   109.14421298    15.76739640
 H     39  37  35     2.055422502313   106.37696157   258.15980378
 H     41  39  37     2.059046048707   110.83305329   296.93919727
 H     41  39  37     2.060487508478   109.16491787   177.43608595
 H     41  39  37     2.059375195657   110.79858587    58.07604967
 C     40  38  35     2.845125804252   110.66433453   103.48631850
 H     40  38  35     2.055482864375   108.55560301   340.13701651
 H     40  38  35     2.054787989691   104.81441873   223.90643608
 H     47  40  38     2.058988626059   110.91017690    57.29418620
 H     47  40  38     2.059421801802   111.24635364   295.88460544
 H     47  40  38     2.061071718311   108.97687058   176.54897363

---------------------
BASIS SET INFORMATION
---------------------
There are 5 groups of distinct atoms

 Group   1 Type C   : 11s6p2d contracted to 5s3p2d pattern {62111/411/11}
 Group   2 Type O   : 11s6p2d contracted to 5s3p2d pattern {62111/411/11}
 Group   3 Type N   : 11s6p2d contracted to 5s3p2d pattern {62111/411/11}
 Group   4 Type H   : 5s1p contracted to 3s1p pattern {311/1}
 Group   5 Type P   : 14s9p3d contracted to 5s5p2d pattern {73211/51111/21}

Atom   0C    basis set group =>   1
Atom   1C    basis set group =>   1
Atom   2C    basis set group =>   1
Atom   3C    basis set group =>   1
Atom   4C    basis set group =>   1
Atom   5O    basis set group =>   2
Atom   6C    basis set group =>   1
Atom   7C    basis set group =>   1
Atom   8C    basis set group =>   1
Atom   9C    basis set group =>   1
Atom  10C    basis set group =>   1
Atom  11N    basis set group =>   3
Atom  12C    basis set group =>   1
Atom  13C    basis set group =>   1
Atom  14C    basis set group =>   1
Atom  15C    basis set group =>   1
Atom  16O    basis set group =>   2
Atom  17N    basis set group =>   3
Atom  18C    basis set group =>   1
Atom  19C    basis set group =>   1
Atom  20H    basis set group =>   4
Atom  21H    basis set group =>   4
Atom  22H    basis set group =>   4
Atom  23H    basis set group =>   4
Atom  24H    basis set group =>   4
Atom  25H    basis set group =>   4
Atom  26H    basis set group =>   4
Atom  27H    basis set group =>   4
Atom  28H    basis set group =>   4
Atom  29H    basis set group =>   4
Atom  30H    basis set group =>   4
Atom  31H    basis set group =>   4
Atom  32H    basis set group =>   4
Atom  33H    basis set group =>   4
Atom  34P    basis set group =>   5
Atom  35O    basis set group =>   2
Atom  36O    basis set group =>   2
Atom  37O    basis set group =>   2
Atom  38C    basis set group =>   1
Atom  39C    basis set group =>   1
Atom  40C    basis set group =>   1
Atom  41H    basis set group =>   4
Atom  42H    basis set group =>   4
Atom  43H    basis set group =>   4
Atom  44H    basis set group =>   4
Atom  45H    basis set group =>   4
Atom  46C    basis set group =>   1
Atom  47H    basis set group =>   4
Atom  48H    basis set group =>   4
Atom  49H    basis set group =>   4
Atom  50H    basis set group =>   4
Atom  51H    basis set group =>   4
---------------------------------
AUXILIARY/J BASIS SET INFORMATION
---------------------------------
There are 5 groups of distinct atoms

 Group   1 Type C   : 12s5p4d2f1g contracted to 6s4p3d1f1g pattern {711111/2111/211/2/1}
 Group   2 Type O   : 12s5p4d2f1g contracted to 6s4p3d1f1g pattern {711111/2111/211/2/1}
 Group   3 Type N   : 12s5p4d2f1g contracted to 6s4p3d1f1g pattern {711111/2111/211/2/1}
 Group   4 Type H   : 5s2p1d contracted to 3s1p1d pattern {311/2/1}
 Group   5 Type P   : 14s5p5d2f1g contracted to 8s4p3d1f1g pattern {71111111/2111/311/2/1}

Atom   0C    basis set group =>   1
Atom   1C    basis set group =>   1
Atom   2C    basis set group =>   1
Atom   3C    basis set group =>   1
Atom   4C    basis set group =>   1
Atom   5O    basis set group =>   2
Atom   6C    basis set group =>   1
Atom   7C    basis set group =>   1
Atom   8C    basis set group =>   1
Atom   9C    basis set group =>   1
Atom  10C    basis set group =>   1
Atom  11N    basis set group =>   3
Atom  12C    basis set group =>   1
Atom  13C    basis set group =>   1
Atom  14C    basis set group =>   1
Atom  15C    basis set group =>   1
Atom  16O    basis set group =>   2
Atom  17N    basis set group =>   3
Atom  18C    basis set group =>   1
Atom  19C    basis set group =>   1
Atom  20H    basis set group =>   4
Atom  21H    basis set group =>   4
Atom  22H    basis set group =>   4
Atom  23H    basis set group =>   4
Atom  24H    basis set group =>   4
Atom  25H    basis set group =>   4
Atom  26H    basis set group =>   4
Atom  27H    basis set group =>   4
Atom  28H    basis set group =>   4
Atom  29H    basis set group =>   4
Atom  30H    basis set group =>   4
Atom  31H    basis set group =>   4
Atom  32H    basis set group =>   4
Atom  33H    basis set group =>   4
Atom  34P    basis set group =>   5
Atom  35O    basis set group =>   2
Atom  36O    basis set group =>   2
Atom  37O    basis set group =>   2
Atom  38C    basis set group =>   1
Atom  39C    basis set group =>   1
Atom  40C    basis set group =>   1
Atom  41H    basis set group =>   4
Atom  42H    basis set group =>   4
Atom  43H    basis set group =>   4
Atom  44H    basis set group =>   4
Atom  45H    basis set group =>   4
Atom  46C    basis set group =>   1
Atom  47H    basis set group =>   4
Atom  48H    basis set group =>   4
Atom  49H    basis set group =>   4
Atom  50H    basis set group =>   4
Atom  51H    basis set group =>   4
------------------------------------------------------------------------------
                             ORCA STARTUP CALCULATIONS
                           -- RI-GTO INTEGRALS CHOSEN --
------------------------------------------------------------------------------
------------------------------------------------------------------------------
                   ___                                                        
                  /   \      - P O W E R E D   B Y -                         
                 /     \                                                     
                 |  |  |   _    _      __       _____    __    __             
                 |  |  |  | |  | |    /  \     |  _  \  |  |  /  |          
                  \  \/   | |  | |   /    \    | | | |  |  | /  /          
                 / \  \   | |__| |  /  /\  \   | |_| |  |  |/  /          
                |  |  |   |  __  | /  /__\  \  |    /   |      \           
                |  |  |   | |  | | |   __   |  |    \   |  |\   \          
                \     /   | |  | | |  |  |  |  | |\  \  |  | \   \       
                 \___/    |_|  |_| |__|  |__|  |_| \__\ |__|  \__/        
                                                                              
                      - O R C A' S   B I G   F R I E N D -                    
                                      &                                       
                       - I N T E G R A L  F E E D E R -                       
                                                                              
 v1 FN, 2020, v2 2021, v3 2022-2024                                           
------------------------------------------------------------------------------


----------------------
SHARK INTEGRAL PACKAGE
----------------------

Number of atoms                             ...     52
Number of basis functions                   ...    822
Number of shells                            ...    378
Maximum angular momentum                    ...      2
Integral batch strategy                     ... SHARK/LIBINT Hybrid
RI-J (if used) integral strategy            ... SPLIT-RIJ (Revised 2003 algorithm where possible)
Printlevel                                  ...      1
Contraction scheme used                     ... SEGMENTED contraction
Prescreening option                         ... SCHWARTZ
   Thresh                                   ... 2.500e-11
   Tcut                                     ... 2.500e-12
   Tpresel                                  ... 2.500e-12 
Coulomb Range Separation                    ... NOT USED
Exchange Range Separation                   ... Long Range
   Mu parameter                             ... 3.300e-01
   Scaling (regular/separated)              ... 1.900e-01 4.600e-01
Multipole approximations                    ... NOT USED
Finite Nucleus Model                        ... NOT USED
CABS basis                                  ... NOT available
Auxiliary Coulomb fitting basis             ... AVAILABLE
   # of basis functions in Aux-J            ...   1638
   # of shells in Aux-J                     ...    542
   Maximum angular momentum in Aux-J        ...      4
Auxiliary J/K fitting basis                 ... NOT available
Auxiliary Correlation fitting basis         ... NOT available
Auxiliary 'external' fitting basis          ... NOT available

Checking pre-screening integrals            ... done (  0.0 sec) Dimension = 378
Check shell pair data                       ... done (  0.0 sec)
Shell pair information
Shell pair cut-off parameter TPreSel        ...   2.5e-12
Total number of shell pairs                 ...     71631
Shell pairs after pre-screening             ...     50559
Total number of primitive shell pairs       ...    234288
Primitive shell pairs kept                  ...    104922
          la=0 lb=0:  15128 shell pairs
          la=1 lb=0:  16853 shell pairs
          la=1 lb=1:   4737 shell pairs
          la=2 lb=0:   8085 shell pairs
          la=2 lb=1:   4594 shell pairs
          la=2 lb=2:   1162 shell pairs

Calculating one electron integrals          ... done (  0.2 sec)
Calculating RI/J V-Matrix + Cholesky decomp.... done (  0.5 sec)
Calculating Nuclear repulsion               ... done (  0.0 sec) ENN=   3173.684338126860 Eh

Diagonalization of the overlap matrix:
Smallest eigenvalue                        ... 4.658e-06
Time for diagonalization                   ...    0.068 sec
Threshold for overlap eigenvalues          ... 1.000e-07
Number of eigenvalues below threshold      ... 0
Time for construction of square roots      ...    0.085 sec
Total time needed                          ...    0.161 sec

-------------------
DFT GRID GENERATION
-------------------

General Integration Accuracy     IntAcc      ... 4.388
Radial Grid Type                 RadialGrid  ... OptM3 with GC (2021)
Angular Grid (max. ang.)         AngularGrid ... 4 (Lebedev-302)
Angular grid pruning method      GridPruning ... 4 (adaptive)
Weight generation scheme         WeightScheme... mBecke (2022)
Basis function cutoff            BFCut       ... 1.0000e-11
Integration weight cutoff        WCut        ... 1.0000e-14
Partially contracted basis set               ... off
Rotationally invariant grid construction     ... off
Angular grids for H and He will be reduced by one unit

Total number of grid points                  ...   244166
Total number of batches                      ...     3839
Average number of points per batch           ...       63
Average number of grid points per atom       ...     4696

--------------------
COSX GRID GENERATION
--------------------

GRIDX 1
-------
General Integration Accuracy     IntAcc      ... 3.816
Radial Grid Type                 RadialGrid  ... OptM3 with GC (2021)
Angular Grid (max. ang.)         AngularGrid ... 1 (Lebedev-50)
Angular grid pruning method      GridPruning ... 4 (adaptive)
Weight generation scheme         WeightScheme... mBecke (2022)
Basis function cutoff            BFCut       ... 1.0000e-11
Integration weight cutoff        WCut        ... 1.0000e-14
Partially contracted basis set               ... on
Rotationally invariant grid construction     ... off
Angular grids for H and He will be reduced by one unit

Total number of grid points                  ...    31932
Total number of batches                      ...      277
Average number of points per batch           ...      115
Average number of grid points per atom       ...      614
UseSFitting                                  ... on

GRIDX 2
-------
General Integration Accuracy     IntAcc      ... 4.020
Radial Grid Type                 RadialGrid  ... OptM3 with GC (2021)
Angular Grid (max. ang.)         AngularGrid ... 2 (Lebedev-110)
Angular grid pruning method      GridPruning ... 4 (adaptive)
Weight generation scheme         WeightScheme... mBecke (2022)
Basis function cutoff            BFCut       ... 1.0000e-11
Integration weight cutoff        WCut        ... 1.0000e-14
Partially contracted basis set               ... on
Rotationally invariant grid construction     ... off
Angular grids for H and He will be reduced by one unit

Total number of grid points                  ...    66293
Total number of batches                      ...      543
Average number of points per batch           ...      122
Average number of grid points per atom       ...     1275
UseSFitting                                  ... on

GRIDX 3
-------
General Integration Accuracy     IntAcc      ... 4.338
Radial Grid Type                 RadialGrid  ... OptM3 with GC (2021)
Angular Grid (max. ang.)         AngularGrid ... 3 (Lebedev-194)
Angular grid pruning method      GridPruning ... 4 (adaptive)
Weight generation scheme         WeightScheme... mBecke (2022)
Basis function cutoff            BFCut       ... 1.0000e-11
Integration weight cutoff        WCut        ... 1.0000e-14
Partially contracted basis set               ... on
Rotationally invariant grid construction     ... off
Angular grids for H and He will be reduced by one unit

Total number of grid points                  ...   144851
Total number of batches                      ...     1156
Average number of points per batch           ...      125
Average number of grid points per atom       ...     2786
UseSFitting                                  ... on
Initializing property integral containers    ... done (  0.0 sec)

SHARK setup successfully completed in   9.0 seconds

Maximum memory used throughout the entire STARTUP-calculation: 176.6 MB
-------------------------------------------------------------------------------
                                 ORCA GUESS
                   Start orbitals & Density for SCF / CASSCF
-------------------------------------------------------------------------------

------------
SCF SETTINGS
------------
Hamiltonian:
 Density Functional     Method          .... DFT(GTOs)
 Exchange Functional    Exchange        .... WB88
 Correlation Functional Correlation     .... LYP
 LDA part of GGA corr.  LDAOpt          .... VWN-5
 Gradients option       PostSCFGGA      .... off
 Hybrid DFT is turned on
   Fraction HF Exchange ScalHFX         ....  0.190000
   Scaling of DF-GGA-X  ScalDFX         ....  0.350000
   Scaling of DF-GGA-C  ScalDFC         ....  0.810000
   Scaling of DF-LDA-C  ScalLDAC        ....  1.000000
   Perturbative correction              ....  0.000000
 Long-range corrected/Screened/Range-Separated Hybrid DFT is turned on
   Amount of maximum screened exact exchange              ....  0.460000
   Range separation parameter mu (erf(mu*r12)/r12)        ....  0.330000
 RI-approximation to the Coulomb term is turned on
   Number of AuxJ basis functions       .... 1638
   RIJ-COSX (HFX calculated with COS-X)).... on


General Settings:
 Integral files         IntName         .... hbq-dcp-es
 Hartree-Fock type      HFTyp           .... RHF
 Total Charge           Charge          ....    1
 Multiplicity           Mult            ....    1
 Number of Electrons    NEL             ....  212
 Basis Dimension        Dim             ....  822
 Nuclear Repulsion      ENuc            ....   3173.6843381269 Eh

Convergence Acceleration:
 AO-DIIS                CNVDIIS         .... on
   Start iteration      DIISMaxIt       ....    12
   Startup error        DIISStart       ....  0.200000
   # of expansion vecs  DIISMaxEq       ....     5
   Bias factor          DIISBfac        ....   1.050
   Max. coefficient     DIISMaxC        ....  10.000
 MO-DIIS                CNVKDIIS        .... off
 Trust-Rad. Augm. Hess. CNVTRAH         .... auto
   Auto Start mean grad. ratio tolernc. ....  1.125000
   Auto Start start iteration           ....    50
   Auto Start num. interpolation iter.  ....    10
   Max. Number of Micro iterations      ....    24
   Max. Number of Macro iterations      .... Maxiter - #DIIS iter
   Number of Davidson start vectors     ....     2
   Converg. threshold    (grad. norm)   ....   1.000e-05
   Grad. Scal. Fac. for Micro threshold ....   0.100
   Minimum threshold for Micro iter.    ....   1.000e-02
   NR start threshold (gradient norm)   ....   1.000e-04
   Initial trust radius                 ....   0.400
   Minimum AH scaling param. (alpha)    ....   1.000
   Maximum AH scaling param. (alpha)    .... 1000.000
   Quad. conv. algorithm                .... NR
   White noise on init. David. guess    .... on
   Maximum white noise                  ....   0.010
   Pseudo random numbers                .... off
   Inactive MOs                         .... canonical
   Orbital update algorithm             .... Taylor
   Preconditioner                       .... Diag
   Full preconditioner red. dimension   ....   250
 SOSCF                  CNVSOSCF        .... on
   Start iteration      SOSCFMaxIt      ....   150
   Startup grad/error   SOSCFStart      ....  0.003300
   Hessian update       SOSCFHessUp     .... L-BFGS
 Level Shifting         CNVShift        .... on
   Level shift para.    LevelShift      ....    0.2500
   Turn off err/grad.   ShiftErr        ....    0.0010
 Zerner damping         CNVZerner       .... off
 Static damping         CNVDamp         .... on
   Fraction old density DampFac         ....    0.7000
   Max. Damping (<1)    DampMax         ....    0.9800
   Min. Damping (>=0)   DampMin         ....    0.0000
   Turn off err/grad.   DampErr         ....    0.1000

SCF Procedure:
 Maximum # iterations   MaxIter         ....   125
 SCF integral mode      SCFMode         .... Direct
   Integral package                     .... SHARK and LIBINT hybrid scheme
 Reset frequency        DirectResetFreq ....    20
 Integral Threshold     Thresh          ....  2.500e-11 Eh
 Primitive CutOff       TCut            ....  2.500e-12 Eh

Convergence Tolerance:
 Convergence Check Mode ConvCheckMode   .... Total+1el-Energy
 Convergence forced     ConvForced      .... 1
 Energy Change          TolE            ....  1.000e-08 Eh
 1-El. energy change                    ....  1.000e-05 Eh
 Orbital Gradient       TolG            ....  1.000e-05
 Orbital Rotation angle TolX            ....  1.000e-05
 DIIS Error             TolErr          ....  5.000e-07

------------------------------
INITIAL GUESS: MODEL POTENTIAL
------------------------------
Loading Hartree-Fock densities                     ... done
Calculating cut-offs                               ... done
Initializing the effective Hamiltonian             ... done
Setting up the integral package (SHARK)            ... done
Starting the Coulomb interaction                   ... done (   2.4 sec)
Making the grid                                    ... done (   0.7 sec)
Mapping shells                                     ... done
Starting the XC term evaluation                    ... done (   1.1 sec)
  promolecular density results
     # of electrons  =    212.982155288
     EX              =   -186.021911453
     EC              =     -7.274368433
     EX+EC           =   -193.296279886
Transforming the Hamiltonian                       ... done (   0.0 sec)
Diagonalizing the Hamiltonian                      ... done (   0.1 sec)
Back transforming the eigenvectors                 ... done (   0.1 sec)
Now organizing SCF variables                       ... done
                      ------------------
                      INITIAL GUESS DONE (   4.4 sec)
                      ------------------
             **** ENERGY FILE WAS UPDATED (hbq-dcp-es.en.tmp) ****
Finished Guess after   4.9 sec
Maximum memory used throughout the entire GUESS-calculation: 128.9 MB

-------------------------------------------------------------------------------------------
                                      ORCA LEAN-SCF
                              memory conserving SCF solver
-------------------------------------------------------------------------------------------

--------------------
CPCM SOLVATION MODEL
--------------------
CPCM parameters:
  Epsilon                                         ...      80.1510
  Refrac                                          ...       1.3328
  Rsolv                                           ...       1.3000
  Surface type                                    ... GAUSSIAN VDW
  Discretization scheme                           ... Constant charge density
    Threshold for H atoms                         ...       5.0000 (charges/Ang^2)
    Threshold for non-H atoms                     ...       5.0000 (charges/Ang^2)
  Epsilon function type                           ...         CPCM
Solvent:                                          ... WATER
Radii:
  Scheme                                          ... Element-dependent radii
  Radius for C  used is    3.8550 Bohr (=   2.0400 Ang.)
  Radius for O  used is    3.4469 Bohr (=   1.8240 Ang.)
  Radius for N  used is    3.5149 Bohr (=   1.8600 Ang.)
  Radius for H  used is    2.4944 Bohr (=   1.3200 Ang.)
  Radius for P  used is    4.0818 Bohr (=   2.1600 Ang.)
Calculating surface                               ...        done! (  0.0s)
Cavity surface points                             ...         4329
Cavity Volume                                     ...    3069.3589
Cavity Surface-area                               ...    1504.0950
Calculating surface distance matrix               ...        done! (  0.1s)
Performing Cholesky decomposition & store         ...        done! (  1.8s)
Overall time for CPCM initialization              ...                 1.9s

----------------------------------------D-I-I-S--------------------------------------------
Iteration    Energy (Eh)           Delta-E    RMSDP     MaxDP     DIISErr   Damp  Time(sec)
-------------------------------------------------------------------------------------------
               ***  Starting incremental Fock matrix formation  ***
    1    -1602.7198215933967731     0.00e+00  1.86e-03  1.76e-01  3.39e-01  0.700 114.4
    2    -1603.0122911313319491    -2.92e-01  1.42e-03  1.25e-01  1.41e-01  0.700  52.7
                               ***Turning on AO-DIIS***
    3    -1603.1379976682082997    -1.26e-01  9.58e-04  9.33e-02  4.39e-02  0.700  52.4
    4    -1603.2144744573924982    -7.65e-02  2.12e-03  2.32e-01  2.46e-02  0.000  48.8
    5    -1603.3819200772359181    -1.67e-01  1.46e-04  7.89e-03  5.01e-03  0.000  52.1
                              *** Initializing SOSCF ***
---------------------------------------S-O-S-C-F--------------------------------------
Iteration    Energy (Eh)           Delta-E    RMSDP     MaxDP     MaxGrad    Time(sec)
--------------------------------------------------------------------------------------
    6    -1603.3824469409928497    -5.27e-04  5.04e-05  2.43e-03  1.85e-03    43.0
               *** Restarting incremental Fock matrix formation ***
    7    -1603.3825058345601065    -5.89e-05  7.80e-05  3.95e-03  8.36e-04   114.4
    8    -1603.3825312201697670    -2.54e-05  5.55e-05  2.43e-03  2.76e-04    78.8
    9    -1603.3825392552471385    -8.04e-06  4.08e-05  2.09e-03  1.56e-04    75.3
   10    -1603.3825419066679387    -2.65e-06  8.70e-06  3.84e-04  3.55e-05    69.5
   11    -1603.3825420252342155    -1.19e-07  4.41e-06  2.05e-04  2.15e-05    58.1
   12    -1603.3825421408382681    -1.16e-07  1.89e-06  1.08e-04  1.05e-05    59.3
   13    -1603.3825421202691359     2.06e-08  2.38e-06  2.85e-04  6.41e-06    44.9
   14    -1603.3825421687906783    -4.85e-08  2.18e-06  2.40e-04  2.13e-06    41.9
                  *** Gradient check signals convergence ***

               *****************************************************
               *                     SUCCESS                       *
               *           SCF CONVERGED AFTER  14 CYCLES          *
               *****************************************************

Recomputing exchange energy using gridx3       ... done (  209.163 sec)
Old exchange energy                            :    -52.653345484 Eh
New exchange energy                            :    -52.653342793 Eh
Exchange energy change after final integration :      0.000002691 Eh
Total energy after final integration           :  -1603.382539478 Eh
             **** ENERGY FILE WAS UPDATED (hbq-dcp-es.en.tmp) ****

----------------
TOTAL SCF ENERGY
----------------

Total Energy       :      -1603.38253947769840 Eh          -43630.25702 eV

Components:
Nuclear Repulsion  :       3173.68433812685998 Eh           86360.34132 eV
Electronic Energy  :      -4776.98184574907373 Eh         -129988.28450 eV
One Electron Energy:      -8481.03150425897365 Eh         -230780.59989 eV
Two Electron Energy:       3704.04965850989993 Eh          100792.31539 eV
CPCM Dielectric    :         -0.08503454657729 Eh              -2.31391 eV

Virial components:
Potential Energy   :      -3200.71696780463571 Eh          -87095.93657 eV
Kinetic Energy     :       1597.33442832693709 Eh           43465.67955 eV
Virial Ratio       :          2.00378637750712

DFT components:
N(Alpha)           :      105.999924633477 electrons
N(Beta)            :      105.999924633477 electrons
N(Total)           :      211.999849266954 electrons
E(XC)              :     -144.632578597316 Eh       

CPCM Solvation Model Properties:
Surface-charge          :         -1.03470687883960
Corrected charge        :         -1.00000000000000
Outlying charge corr.   :          0.00006012680096 Eh               0.00164 eV
Free-energy (cav+disp)  :  This term is not implemented in the current solvation scheme

---------------
SCF CONVERGENCE
---------------

  Last Energy change         ...    4.8522e-08  Tolerance :   1.0000e-08
  Last MAX-Density change    ...    2.4033e-04  Tolerance :   1.0000e-07
  Last RMS-Density change    ...    2.1776e-06  Tolerance :   5.0000e-09
  Last DIIS Error            ...    1.8467e-03  Tolerance :   5.0000e-07
  Last Orbital Gradient      ...    2.1271e-06  Tolerance :   1.0000e-05
  Last Orbital Rotation      ...    1.2921e-05  Tolerance :   1.0000e-05


----------------
ORBITAL ENERGIES
----------------

  NO   OCC          E(Eh)            E(eV) 
   0   2.0000     -77.290600     -2103.1841 
   1   2.0000     -19.262713      -524.1651 
   2   2.0000     -19.253375      -523.9110 
   3   2.0000     -19.252974      -523.9001 
   4   2.0000     -19.187464      -522.1174 
   5   2.0000     -19.187448      -522.1170 
   6   2.0000     -14.500686      -394.5837 
   7   2.0000     -14.435379      -392.8066 
   8   2.0000     -10.411969      -283.3241 
   9   2.0000     -10.358421      -281.8670 
  10   2.0000     -10.350018      -281.6383 
  11   2.0000     -10.341621      -281.4098 
  12   2.0000     -10.321486      -280.8619 
  13   2.0000     -10.314542      -280.6730 
  14   2.0000     -10.311605      -280.5930 
  15   2.0000     -10.303909      -280.3836 
  16   2.0000     -10.293896      -280.1112 
  17   2.0000     -10.291723      -280.0520 
  18   2.0000     -10.289793      -279.9995 
  19   2.0000     -10.276310      -279.6326 
  20   2.0000     -10.273885      -279.5666 
  21   2.0000     -10.273107      -279.5455 
  22   2.0000     -10.272664      -279.5334 
  23   2.0000     -10.271121      -279.4914 
  24   2.0000     -10.265007      -279.3250 
  25   2.0000     -10.264536      -279.3122 
  26   2.0000     -10.238938      -278.6157 
  27   2.0000     -10.238444      -278.6022 
  28   2.0000      -6.759271      -183.9291 
  29   2.0000      -4.922853      -133.9576 
  30   2.0000      -4.922106      -133.9373 
  31   2.0000      -4.920543      -133.8948 
  32   2.0000      -1.219986       -33.1975 
  33   2.0000      -1.201088       -32.6833 
  34   2.0000      -1.141419       -31.0596 
  35   2.0000      -1.127809       -30.6892 
  36   2.0000      -1.110252       -30.2115 
  37   2.0000      -1.077805       -29.3286 
  38   2.0000      -1.045088       -28.4383 
  39   2.0000      -0.995215       -27.0812 
  40   2.0000      -0.958403       -26.0795 
  41   2.0000      -0.928822       -25.2745 
  42   2.0000      -0.894443       -24.3390 
  43   2.0000      -0.871246       -23.7078 
  44   2.0000      -0.862572       -23.4718 
  45   2.0000      -0.853728       -23.2311 
  46   2.0000      -0.845135       -22.9973 
  47   2.0000      -0.808637       -22.0041 
  48   2.0000      -0.802031       -21.8244 
  49   2.0000      -0.786518       -21.4022 
  50   2.0000      -0.762819       -20.7574 
  51   2.0000      -0.751646       -20.4533 
  52   2.0000      -0.734139       -19.9769 
  53   2.0000      -0.721153       -19.6236 
  54   2.0000      -0.717954       -19.5365 
  55   2.0000      -0.683573       -18.6010 
  56   2.0000      -0.672505       -18.2998 
  57   2.0000      -0.648557       -17.6481 
  58   2.0000      -0.636629       -17.3236 
  59   2.0000      -0.623490       -16.9660 
[...]
134:   3058.31   0.001997   10.09  0.000204  (-0.013463 -0.000287  0.004740)
135:   3061.50   0.015105   76.33  0.001540  ( 0.007986 -0.018840  0.033480)
136:   3097.58   0.003933   19.88  0.000396  ( 0.014007 -0.014144 -0.000067)
137:   3100.61   0.004110   20.77  0.000414  ( 0.008437 -0.015363 -0.010315)
138:   3127.86   0.007135   36.06  0.000712  (-0.017016 -0.019023 -0.007772)
139:   3130.69   0.003973   20.08  0.000396  (-0.008713 -0.016136 -0.007730)
140:   3134.43   0.000527    2.66  0.000052  (-0.000781  0.002724  0.006667)
141:   3134.75   0.003262   16.49  0.000325  (-0.014392  0.002595  0.010531)
142:   3136.30   0.003103   15.68  0.000309  ( 0.000078 -0.014380 -0.010098)
143:   3137.83   0.004380   22.13  0.000436  ( 0.012279 -0.016862  0.000694)
144:   3161.48   0.005693   28.77  0.000562  ( 0.011713  0.001883  0.020524)
145:   3162.94   0.004018   20.30  0.000396  ( 0.012496  0.015498  0.000231)
146:   3197.78   0.000448    2.26  0.000044  ( 0.004421 -0.004400  0.002194)
147:   3212.71   0.000238    1.20  0.000023  (-0.004331 -0.000736 -0.001956)
148:   3219.71   0.000359    1.81  0.000035  ( 0.002712 -0.001667 -0.004965)
149:   3224.82   0.000059    0.30  0.000006  (-0.001180 -0.001839  0.000988)
150:   3227.43   0.000261    1.32  0.000025  ( 0.000777  0.003834 -0.003160)
151:   3230.89   0.000043    0.22  0.000004  ( 0.000924  0.001816  0.000140)
152:   3232.75   0.000586    2.96  0.000057  (-0.005684 -0.003567  0.003399)
153:   3238.18   0.001881    9.51  0.000181  ( 0.003949 -0.010093  0.007988)
154:   3246.60   0.000561    2.84  0.000054  ( 0.006265  0.003464 -0.001649)
155:   3250.84   0.004952   25.03  0.000475  (-0.016815 -0.011476  0.007806)

* The epsilon (eps) is given for a Dirac delta lineshape.
** The dipole moment derivative (T) already includes vibrational overlap.

The first frequency considered to be a vibration is 7
The total number of vibrations considered is 149


--------------------------
THERMOCHEMISTRY AT 298.15K
--------------------------

Temperature         ...   298.15 K
Pressure            ...     1.00 atm
Total Mass          ...   403.39 AMU
Quasi RRHO          ...     True
Cut-Off Frequency   ...     1.00 cm^-1

Throughout the following assumptions are being made:
  (1) The electronic state is orbitally nondegenerate
  (2) There are no thermally accessible electronically excited states
  (3) Hindered rotations indicated by low frequency modes are not
      treated as such but are treated as vibrations and this may
      cause some error
  (4) All equations used are the standard statistical mechanics
      equations for an ideal gas
  (5) All vibrations are strictly harmonic

freq.      22.60  E(vib)   ...       0.56 
freq.      34.44  E(vib)   ...       0.54 
freq.      44.96  E(vib)   ...       0.53 
freq.      47.28  E(vib)   ...       0.53 
freq.      57.13  E(vib)   ...       0.51 
freq.      59.12  E(vib)   ...       0.51 
freq.      67.87  E(vib)   ...       0.50 
freq.      85.07  E(vib)   ...       0.48 
freq.      87.87  E(vib)   ...       0.48 
freq.      99.23  E(vib)   ...       0.46 
freq.     105.79  E(vib)   ...       0.45 
freq.     113.18  E(vib)   ...       0.45 
freq.     139.25  E(vib)   ...       0.42 
freq.     141.52  E(vib)   ...       0.41 
freq.     153.77  E(vib)   ...       0.40 
freq.     165.79  E(vib)   ...       0.39 
freq.     196.28  E(vib)   ...       0.36 
freq.     200.39  E(vib)   ...       0.35 
freq.     218.18  E(vib)   ...       0.33 
freq.     226.65  E(vib)   ...       0.33 
freq.     249.45  E(vib)   ...       0.31 
freq.     255.82  E(vib)   ...       0.30 
freq.     261.80  E(vib)   ...       0.30 
freq.     289.49  E(vib)   ...       0.27 
freq.     292.12  E(vib)   ...       0.27 
freq.     300.96  E(vib)   ...       0.26 
freq.     335.79  E(vib)   ...       0.24 
freq.     349.24  E(vib)   ...       0.23 
freq.     375.63  E(vib)   ...       0.21 
freq.     388.46  E(vib)   ...       0.20 
freq.     390.69  E(vib)   ...       0.20 
freq.     409.53  E(vib)   ...       0.19 
freq.     425.96  E(vib)   ...       0.18 
freq.     454.10  E(vib)   ...       0.16 
freq.     459.71  E(vib)   ...       0.16 
freq.     470.10  E(vib)   ...       0.16 
freq.     487.03  E(vib)   ...       0.15 
freq.     504.63  E(vib)   ...       0.14 
freq.     519.09  E(vib)   ...       0.13 
freq.     531.10  E(vib)   ...       0.13 
freq.     540.51  E(vib)   ...       0.12 
freq.     560.41  E(vib)   ...       0.11 
freq.     578.71  E(vib)   ...       0.11 
freq.     603.62  E(vib)   ...       0.10 
freq.     640.65  E(vib)   ...       0.09 
freq.     651.58  E(vib)   ...       0.08 
freq.     695.85  E(vib)   ...       0.07 
freq.     725.76  E(vib)   ...       0.06 
freq.     742.45  E(vib)   ...       0.06 
freq.     747.36  E(vib)   ...       0.06 
freq.     755.47  E(vib)   ...       0.06 
freq.     784.68  E(vib)   ...       0.05 
freq.     789.01  E(vib)   ...       0.05 
freq.     807.97  E(vib)   ...       0.05 
freq.     815.45  E(vib)   ...       0.05 
freq.     820.24  E(vib)   ...       0.05 
freq.     830.18  E(vib)   ...       0.04 
freq.     835.81  E(vib)   ...       0.04 
freq.     845.78  E(vib)   ...       0.04 
freq.     870.71  E(vib)   ...       0.04 
freq.     882.20  E(vib)   ...       0.04 
freq.     939.97  E(vib)   ...       0.03 
freq.     966.99  E(vib)   ...       0.03 
freq.     973.91  E(vib)   ...       0.03 
freq.     979.45  E(vib)   ...       0.03 
freq.     992.46  E(vib)   ...       0.02 
freq.     999.18  E(vib)   ...       0.02 
freq.    1001.44  E(vib)   ...       0.02 
freq.    1012.16  E(vib)   ...       0.02 
freq.    1021.16  E(vib)   ...       0.02 
freq.    1048.92  E(vib)   ...       0.02 
freq.    1068.29  E(vib)   ...       0.02 
freq.    1084.90  E(vib)   ...       0.02 
freq.    1087.34  E(vib)   ...       0.02 
freq.    1098.39  E(vib)   ...       0.02 
freq.    1121.91  E(vib)   ...       0.01 
freq.    1125.22  E(vib)   ...       0.01 
freq.    1128.42  E(vib)   ...       0.01 
freq.    1129.89  E(vib)   ...       0.01 
freq.    1133.75  E(vib)   ...       0.01 
freq.    1135.28  E(vib)   ...       0.01 
freq.    1160.23  E(vib)   ...       0.01 
freq.    1185.12  E(vib)   ...       0.01 
freq.    1189.79  E(vib)   ...       0.01 
freq.    1192.07  E(vib)   ...       0.01 
freq.    1200.78  E(vib)   ...       0.01 
freq.    1219.46  E(vib)   ...       0.01 
freq.    1249.82  E(vib)   ...       0.01 
freq.    1259.53  E(vib)   ...       0.01 
freq.    1275.68  E(vib)   ...       0.01 
freq.    1288.80  E(vib)   ...       0.01 
freq.    1299.26  E(vib)   ...       0.01 
freq.    1310.15  E(vib)   ...       0.01 
freq.    1330.45  E(vib)   ...       0.01 
freq.    1331.94  E(vib)   ...       0.01 
freq.    1373.59  E(vib)   ...       0.01 
freq.    1406.44  E(vib)   ...       0.00 
freq.    1411.10  E(vib)   ...       0.00 
freq.    1412.08  E(vib)   ...       0.00 
freq.    1413.68  E(vib)   ...       0.00 
freq.    1428.48  E(vib)   ...       0.00 
freq.    1429.82  E(vib)   ...       0.00 
freq.    1432.57  E(vib)   ...       0.00 
freq.    1440.73  E(vib)   ...       0.00 
freq.    1449.71  E(vib)   ...       0.00 
freq.    1451.76  E(vib)   ...       0.00 
freq.    1467.48  E(vib)   ...       0.00 
freq.    1474.24  E(vib)   ...       0.00 
freq.    1478.11  E(vib)   ...       0.00 
freq.    1482.91  E(vib)   ...       0.00 
freq.    1483.62  E(vib)   ...       0.00 
freq.    1486.62  E(vib)   ...       0.00 
freq.    1489.25  E(vib)   ...       0.00 
freq.    1489.93  E(vib)   ...       0.00 
freq.    1491.09  E(vib)   ...       0.00 
freq.    1500.62  E(vib)   ...       0.00 
freq.    1507.84  E(vib)   ...       0.00 
freq.    1513.01  E(vib)   ...       0.00 
freq.    1515.47  E(vib)   ...       0.00 
freq.    1540.06  E(vib)   ...       0.00 
freq.    1569.02  E(vib)   ...       0.00 
freq.    1581.68  E(vib)   ...       0.00 
freq.    1628.47  E(vib)   ...       0.00 
freq.    1639.01  E(vib)   ...       0.00 
freq.    1803.35  E(vib)   ...       0.00 
freq.    3055.98  E(vib)   ...       0.00 
freq.    3057.92  E(vib)   ...       0.00 
freq.    3058.31  E(vib)   ...       0.00 
freq.    3061.50  E(vib)   ...       0.00 
freq.    3097.58  E(vib)   ...       0.00 
freq.    3100.61  E(vib)   ...       0.00 
freq.    3127.86  E(vib)   ...       0.00 
freq.    3130.69  E(vib)   ...       0.00 
freq.    3134.43  E(vib)   ...       0.00 
freq.    3134.75  E(vib)   ...       0.00 
freq.    3136.30  E(vib)   ...       0.00 
freq.    3137.83  E(vib)   ...       0.00 
freq.    3161.48  E(vib)   ...       0.00 
freq.    3162.94  E(vib)   ...       0.00 
freq.    3197.78  E(vib)   ...       0.00 
freq.    3212.71  E(vib)   ...       0.00 
freq.    3219.71  E(vib)   ...       0.00 
freq.    3224.82  E(vib)   ...       0.00 
freq.    3227.43  E(vib)   ...       0.00 
freq.    3230.89  E(vib)   ...       0.00 
freq.    3232.75  E(vib)   ...       0.00 
freq.    3238.18  E(vib)   ...       0.00 
freq.    3246.60  E(vib)   ...       0.00 
freq.    3250.84  E(vib)   ...       0.00 

------------
INNER ENERGY
------------

The inner energy is: U= E(el) + E(ZPE) + E(vib) + E(rot) + E(trans)
    E(el)   - is the total energy from the electronic structure calculation
              = E(kin-el) + E(nuc-el) + E(el-el) + E(nuc-nuc)
    E(ZPE)  - the the zero temperature vibrational energy from the frequency calculation
    E(vib)  - the the finite temperature correction to E(ZPE) due to population
              of excited vibrational states
    E(rot)  - is the rotational thermal energy
    E(trans)- is the translational thermal energy

Summary of contributions to the inner energy U:
Electronic energy                ...  -1603.28150426 Eh
Zero point energy                ...      0.42081228 Eh     264.06 kcal/mol
Thermal vibrational correction   ...      0.02414220 Eh      15.15 kcal/mol
Thermal rotational correction    ...      0.00141627 Eh       0.89 kcal/mol
Thermal translational correction ...      0.00141627 Eh       0.89 kcal/mol
-----------------------------------------------------------------------
Total thermal energy                  -1602.83371723 Eh


Summary of corrections to the electronic energy:
(perhaps to be used in another calculation)
Total thermal correction                  0.02697474 Eh      16.93 kcal/mol
Non-thermal (ZPE) correction              0.42081228 Eh     264.06 kcal/mol
-----------------------------------------------------------------------
Total correction                          0.44778702 Eh     280.99 kcal/mol


--------
ENTHALPY
--------

The enthalpy is H = U + kB*T
                kB is Boltzmann's constant
Total thermal energy              ...  -1602.83371723 Eh 
Thermal Enthalpy correction       ...      0.00094421 Eh       0.59 kcal/mol
-----------------------------------------------------------------------
Total Enthalpy                    ...  -1602.83277302 Eh


Note: Only C1 symmetry has been detected, increase convergence thresholds 
      if your molecule has a higher symmetry. Symmetry factor of 1.0 is   
      used for the rotational entropy correction. 
 

Note: Rotational entropy computed according to Herzberg 
Infrared and Raman Spectra, Chapter V,1, Van Nostrand Reinhold, 1945 
Point Group:  C1, Symmetry Number:   1  
Rotational constants in cm-1:     0.007229     0.006222     0.004738 

Vibrational entropy computed according to the QRRHO of S. Grimme
Chem.Eur.J. 2012 18 9955 using a reference frequency of 100.0 cm-1


-------
ENTROPY
-------

The entropy contributions are T*S = T*(S(el)+S(vib)+S(rot)+S(trans))
     S(el)   - electronic entropy
     S(vib)  - vibrational entropy
     S(rot)  - rotational entropy
     S(trans)- translational entropy
The entropies will be listed as multiplied by the temperature to get
units of energy

Electronic entropy                ...      0.00000000 Eh      0.00 kcal/mol
Vibrational entropy               ...      0.04305675 Eh     27.02 kcal/mol
Rotational entropy                ...      0.01676284 Eh     10.52 kcal/mol
Translational entropy             ...      0.02084658 Eh     13.08 kcal/mol
-----------------------------------------------------------------------
Final entropy term                ...      0.08066617 Eh     50.62 kcal/mol

In case the symmetry of your molecule has not been determined correctly
or in case you have a reason to use a different symmetry number we print 
out the resulting rotational entropy values for sn=1,12:

 non-linear molecules -----------------------------------
|  sn= 1 | S(rot)=       0.01676284 Eh     10.52 kcal/mol|
|  sn= 2 | S(rot)=       0.01610839 Eh     10.11 kcal/mol|
|  sn= 3 | S(rot)=       0.01572555 Eh      9.87 kcal/mol|
|  sn= 4 | S(rot)=       0.01545393 Eh      9.70 kcal/mol|
|  sn= 5 | S(rot)=       0.01524324 Eh      9.57 kcal/mol|
|  sn= 6 | S(rot)=       0.01507110 Eh      9.46 kcal/mol|
|  sn= 7 | S(rot)=       0.01492555 Eh      9.37 kcal/mol|
|  sn= 8 | S(rot)=       0.01479947 Eh      9.29 kcal/mol|
|  sn= 9 | S(rot)=       0.01468826 Eh      9.22 kcal/mol|
|  sn=10 | S(rot)=       0.01458879 Eh      9.15 kcal/mol|
|  sn=11 | S(rot)=       0.01449880 Eh      9.10 kcal/mol|
|  sn=12 | S(rot)=       0.01441664 Eh      9.05 kcal/mol|
 linear molecules ---------------------------------------
|  Dinfh | S(rot)=       0.01037929 Eh      6.51 kcal/mol|
|  Cinfv | S(rot)=       0.01103374 Eh      6.92 kcal/mol|
 --------------------------------------------------------


-------------------
GIBBS FREE ENERGY
-------------------

The Gibbs free energy is G = H - T*S

Total enthalpy                    ...  -1602.83277302 Eh 
Total entropy correction          ...     -0.08066617 Eh    -50.62 kcal/mol
-----------------------------------------------------------------------
Final Gibbs free energy         ...  -1602.91343920 Eh

For completeness - the Gibbs free energy minus the electronic energy
G-E(el)                           ...      0.36806506 Eh    230.96 kcal/mol



--------------------------------
SUGGESTED CITATIONS FOR THIS RUN
--------------------------------

Below you find a list of papers that are relevant to this ORCA run
We neither can nor want to force you to cite these papers, but we appreciate if you do
You receive ORCA, which is the product of decades of hard work by many enthusiastic individuals, for free
The only thing we kindly ask in return is that you cite our papers,
We deeply appreciate it, if you show your appreciation for ORCA by not just citing the generic ORCA reference.

Please note that relegating all ORCA citations to the supporting information does *not* help us.
SI sections are not indexed - citations you put there will not count into any citation statistics
But we need these citations in order to attract the funding resources that allow us to do what we are doing

Therefore, if you are a happy ORCA user, please consider citing a few of the papers listed below in the main body of your paper

In addition to the list printed below, the program has created the file hbq-dcp-es.bibtex that contains the list in bibtex format
You can import this file easily into all common literature databanks and citation aid programs


List of essential papers. We consider these as the minimum necessary citations

  1. Neese,F.
     Software update: the ORCA program system, version 5.0
     WIRES Comput. Molec. Sci., 2022 12(1)e1606
     doi.org/10.1002/wcms.1606

List of papers to cite with high priority. The work reported in these papers was absolutely
necessary for this run to complete.
Our perspective: the developers of density functionals and basis sets usually get cited in chemistry papers
Good! But without the algorithms to do something with them, the functionals or basis sets would not do anything.
Hence, in our opinion, the algorithm design and method developments papers are equally worthy of getting cited

  1. Neese,F.; Olbrich,G.
     Efficient use of the resolution of the identity approximation in time-dependent density functional calculations with hybrid density functionals
     Chem. Phys. Lett., 2002 362 170-178
     doi.org/10.1016/s0009-2614(02)01053-9
  2. Neese,F.
     An improvement of the resolution of the identity approximation for the formation of the Coulomb matrix
     J. Comp. Chem., 2003 24(14)1740-1747
     doi.org/10.1002/jcc.10318
  3. Neese,F.; Wennmohs,F.; Hansen,A.; Becker,U.
     Efficient, approximate and parallel Hartree-Fock and hybrid DFT calculations. A 'chain-of-spheres' algorithm for the Hartree-Fock exchange
     Chem. Phys., 2009 356(1-3)98-109
     doi.org/10.1016/j.chemphys.2008.10.036
  4. Petrenko,T.; Kossmann,S.; Neese,F.
     Efficient time-dependent density functional theory approximations for hybrid density functionals: Analytical gradients and parallelization
     J. Chem. Phys., 2011 134 054116
     doi.org/10.1063/1.3533441
  5. Bykov,D.; Petrenko,T.; Izsak,R.; Kossmann,S.; Becker,U.; Valeev,E.; Neese,F.
     Efficient implementation of the analytic second derivatives of Hartree-Fock and hybrid DFT energies: a detailed analysis of different approximations
     Molec. Phys., 2015 113 1961-1977
     doi.org/10.1080/00268976.2015.1025114
  6. Garcia-Rates,M.; Neese,F.
     Effect of the Solute Cavity on the Solvation Energy and its Derivatives within the Framework of the Gaussian Charge Scheme
     J. Comput. Chem., 2020 41 922-939
     doi.org/10.1002/jcc.26139
  7. Helmich-Paris,B.; de Souza,B.; Neese,F.; Izsák,R.
     An improved chain of spheres for exchange algorithm
     J. Chem. Phys., 2021 155 104109
     doi.org/doi: 10.1063/5.0058766.
  8. Neese,F.
     The SHARK Integral Generation and Digestion System
     J. Comp. Chem., 2022  1-16
     doi.org/10.1002/jcc.26942

List of suggested additional citations. These are papers that are important in the 'surrounding' of 
of this run, or papers that preceded the highly important papers. If you like your results we are grateful for a citation.

  1. Izsak,R.; Neese,F.
     An overlap fitted chain of spheres exchange method
     J. Chem. Phys., 2011 135 144105
     doi.org/10.1063/1.3646921
  2. Izsak,R.; Hansen,A.; Neese,F.
     The resolution of identity and chain of spheres approximations for the LPNO-CCSD singles Fock term
     Molec. Phys., 2012 110 2413-2417
     doi.org/10.1080/00268976.2012.687466
  3. Neese,F.
     The ORCA program system
     WIRES Comput. Molec. Sci., 2012 2(1)73-78
     doi.org/10.1002/wcms.81
  4. Izsak,R.; Neese,F.; Klopper,W.
     Robust fitting techniques in the chain of spheres approximation to the Fock exchange: The role of the complementary space
     J. Chem. Phys., 2013 139 
     doi.org/10.1063/1.4819264
  5. Neese,F.
     Software update: the ORCA program system, version 4.0
     WIRES Comput. Molec. Sci., 2018 8(1)1-6
     doi.org/10.1002/wcms.1327
  6. Neese,F.; Wennmohs,F.; Becker,U.; Riplinger,C.
     The ORCA quantum chemistry program package
     J. Chem. Phys., 2020 152 Art. No. L224108
     doi.org/10.1063/5.0004608

List of optional additional citations

  1. Neese,F.
     Approximate second-order SCF convergence for spin unrestricted wavefunctions
     Chem. Phys. Lett., 2000 325(1-3)93-98
     doi.org/10.1016/s0009-2614(00)00662-x

Timings for individual modules:

Sum of individual times          ...   732369.385 sec (=12206.156 min)
Startup calculation              ...      364.386 sec (=   6.073 min)   0.0 %
SCF iterations                   ...    22188.757 sec (= 369.813 min)   3.0 %
Property integrals               ...       32.290 sec (=   0.538 min)   0.0 %
Property calculations            ...        0.231 sec (=   0.004 min)   0.0 %
CIS module                       ...    57804.831 sec (= 963.414 min)   7.9 %
Geometry relaxation              ...        1.219 sec (=   0.020 min)   0.0 %
Numerical frequency calculation  ...   651977.670 sec (=10866.295 min)  89.0 %
                             ****ORCA TERMINATED NORMALLY****
TOTAL RUN TIME: 8 days 10 hours 53 minutes 38 seconds 41 msec
