
                                 *****************
                                 * O   R   C   A *
                                 *****************

                                            #,                                       
                                            ###                                      
                                            ####                                     
                                            #####                                    
                                            ######                                   
                                           ########,                                 
                                     ,,################,,,,,                         
                               ,,#################################,,                 
                          ,,##########################################,,             
                       ,#########################################, ''#####,          
                    ,#############################################,,   '####,        
                  ,##################################################,,,,####,       
                ,###########''''           ''''###############################       
              ,#####''   ,,,,##########,,,,          '''####'''          '####       
            ,##' ,,,,###########################,,,                        '##       
           ' ,,###''''                  '''############,,,                           
         ,,##''                                '''############,,,,        ,,,,,,###''
      ,#''                                            '''#######################'''  
     '                                                          ''''####''''         
             ,#######,   #######,   ,#######,      ##                                
            ,#'     '#,  ##    ##  ,#'     '#,    #''#        ,####,   ,####,        
            ##       ##  ##   ,#'  ##            #'  '#       #'       #'  '#        
            ##       ##  #######   ##           ,######,      #####,   #    #        
            '#,     ,#'  ##    ##  '#,     ,#' ,#      #,     #,   #   #,  ,#        
             '#######'   ##     ##  '#######'  #'      '#     '####' # '####'        



                #########################################################
                #                        -***-                          #
                #          Department of theory and spectroscopy        #
                #                                                       #
                #                      Frank Neese                      #
                #                                                       #
                #     Directorship, Architecture, Infrastructure        #
                #                    SHARK, DRIVERS                     #
                #        Core code/Algorithms in most modules           #
                #                                                       #
                #        Max Planck Institute fuer Kohlenforschung      #
                #                Kaiser Wilhelm Platz 1                 #
                #                 D-45470 Muelheim/Ruhr                 #
                #                      Germany                          #
                #                                                       #
                #                  All rights reserved                  #
                #                        -***-                          #
                #########################################################


                         Program Version 6.0.1  -  RELEASE   -


 With contributions from (in alphabetic order):
[Max-Planck-Institut fuer Kohlenforschung]                               
  Daniel Aravena         : Magnetic Suceptibility                        
  Michael Atanasov       : Ab Initio Ligand Field Theory (pilot matlab implementation)
  Alexander A. Auer      : GIAO ZORA, VPT2 properties, NMR spectrum      
  Ute Becker             : All parallelization in ORCA, NUMFREQ, NUMCALC 
  Giovanni Bistoni       : ED, misc. LED, open-shell LED, HFLD           
  Martin Brehm           : Molecular dynamics                            
  Dmytro Bykov           : pre 5.0 version of the SCF Hessian            
  Marcos Casanova-Páez   : Triplet and SCS-CIS(D). UHF-(DLPNO)-IP/EA/STEOM-CCSD. UHF-CVS-IP/STEOM-CCSD   
  Vijay G. Chilkuri      : MRCI spin determinant printing, contributions to CSF-ICE 
  Pauline Colinet        : FMM embedding                                 
  Dipayan Datta          : RHF DLPNO-CCSD density                        
  Achintya Kumar Dutta   : EOM-CC, STEOM-CC                              
  Nicolas Foglia         : Exact transition moments, OPA infrastructure, MCD improvements    
  Dmitry Ganyushin       : Spin-Orbit,Spin-Spin,Magnetic field MRCI      
  Miquel Garcia-Rates    : C-PCM and meta-GGA Hessian, CCSD/C-PCM, Gaussian charge scheme 
  Tiago L. C. Gouveia    : GS-ROHF, GS-ROCIS                             
  Yang Guo               : DLPNO-NEVPT2, F12-NEVPT2, CIM, IAO-localization        
  Andreas Hansen         : Spin unrestricted coupled pair/coupled cluster methods 
  Ingolf Harden          : AUTO-CI MPn and infrastructure                
  Benjamin Helmich-Paris : MC-RPA, TRAH-(SCF,CASSCF), AVAS, COSX integrals, SCF dyn. polar. 
  Lee Huntington         : MR-EOM, pCC                                   
  Robert Izsak           : Overlap fitted RIJCOSX, COSX-SCS-MP3, EOM     
  Riya Kayal             : Wick's Theorem for AUTO-CI, AUTO-CI UHF-CCSDT 
  Emily Kempfer          : AUTO-CI, RHF CISDT and CCSDT                  
  Christian Kollmar      : KDIIS, OOCD, Brueckner-CCSD(T), CCSD density, CASPT2, CASPT2-K, improved NEVPT2 
  Axel Koslowski         : Symmetry handling                             
  Simone Kossmann        : meta-GGA functionals, TD-DFT gradient, OOMP2, (MP2 Hessian; deprecated post 5.0) 
  Lucas Lang             : DCDCAS                                        
  Marvin Lechner         : AUTO-CI (C++ implementation), FIC-MRCC        
  Spencer Leger          : CASSCF response                               
  Dagmar Lenk            : GEPOL surface, SMD, ORCA-2-JSON               
  Dimitrios Liakos       : Extrapolation schemes; Compound Job, initial MDCI parallelization 
  Dimitrios Manganas     : Further ROCIS development; embedding schemes. LFT, Crystal Embedding 
  Dimitrios Pantazis     : SARC Basis sets                               
  Anastasios Papadopoulos: AUTO-CI, single reference methods and gradients 
  Taras Petrenko         : pre 6.0 DFT Hessian and TD-DFT gradient, (ASA, deprecated), ECA, 1-Electron XAS/XES, NRVS 
  Peter Pinski           : DLPNO-MP2, DLPNO-MP2 Gradient                 
  Christoph Reimann      : Effective Core Potentials                     
  Marius Retegan         : Local ZFS, SOC                                
  Christoph Riplinger    : Optimizer, TS searches, QM/MM, DLPNO-CCSD(T), (RO)-DLPNO pert. Triples 
  Michael Roemelt        : Original ROCIS implementation                 
  Masaaki Saitow         : Open-shell DLPNO-CCSD energy and density      
  Barbara Sandhoefer     : DKH picture change effects                    
  Kantharuban Sivalingam : CASSCF convergence/infrastructure, NEVPT2 and variants, FIC-MRCI 
  Bernardo de Souza      : ESD, SOC TD-DFT                               
  Georgi L. Stoychev     : AutoAux, RI-MP2 NMR, DLPNO-MP2 response, X2C  
  Van Anh Tran           : RI-MP2 g-tensors                              
  Willem Van den Heuvel  : Paramagnetic NMR                              
  Zikuan Wang            : NOTCH, Electric field optimization            
  Frank Wennmohs         : Technical directorship and infrastructure     
  Hang Xu                : AUTO-CI-Response properties                   
                                                                         
[FACCTs GmbH]                                                            
  Markus Bursch, Miquel Garcia-Rates, Christoph Riplinger, Bernardo de Souza, Georgi L. Stoychev 
                                                                 
  APM, Basis sets (HGBS, AHGBS, def-TZVP (Ac-Lr), def2-XVPD (La-Lu)), CI-OPT, improved COSX, DLPNO-Multilevel,           
  DOCKER, DRACO, updates on ESD, GOAT, IRC, LR-CPCM, MBIS, meta-GGA TD-DFT gradient, ML-optimized integration grids, 
  MM, NACMEs, nearIR, NEB, NEB-TS, NL-DFT gradient (VV10), 2- and 3-layer-ONIOM, interface openCOSMO-RS, QMMM,   
  Crystal-QMMM, SF, symmetry and pop. for TD-DFT, r2SCAN hybrids, SOLVATOR                                   
                                                                         
[Other institutions]                                                     
  V. Asgeirsson          : NEB                                           
  Christoph Bannwarth    : sTDA-DFT, sTD-DFT, PBEh-3c, B97-3c, D3        
  Sebastian Ehlert       : rSCAN, r2SCAN, r2SCAN-3c, D4, dhf basis sets  
  Marvin Friede          : D4 for Fr, Ra, Ac-Lr                          
  Lars Goerigk           : TD-DFT with DH, B97 family of functionals     
  Stefan Grimme          : VdW corrections, initial TS optimization, DFT functionals, gCP, sTDA/sTD-DF 
  Waldemar Hujo          : DFT-NL                                        
  H. Jonsson             : NEB                                           
  Holger Kruse           : gCP                                           
  Marcel Mueller         : wB97X-3c, vDZP basis set                      
  Hagen Neugebauer       : wr2SCAN                                       
  Tobias Risthaus        : range-separated hybrid DFT                    
  Lukas Wittmann         : regularized MP2, r2SCAN double-hybrids, wr2SCAN        
                                                                         
We gratefully acknowledge several colleagues who have allowed us to      
interface, adapt or use parts of their codes:                            
  Ed Valeev, F. Pavosevic, A. Kumar             : LibInt (2-el integral package), F12 methods 
  Garnet Chan, S. Sharma, J. Yang, R. Olivares  : DMRG                   
  Ulf Ekstrom                                   : XCFun DFT Library      
  Mihaly Kallay                                 : mrcc  (arbitrary order and MRCC methods)
  Frank Weinhold                                : gennbo (NPA and NBO analysis)           
  Simon Mueller                                 : openCOSMO-RS                            
  Christopher J. Cramer and Donald G. Truhlar   : smd solvation model                     
  S Lehtola, MJT Oliveira, MAL Marques          : LibXC Library                           
  Liviu Ungur et al                             : ANISO software                          


 Your calculation uses the libint2 library for the computation of 2-el integrals
 For citations please refer to: http://libint.valeyev.net

 Your ORCA version has been built with support for libXC version: 6.2.2
 For citations please refer to: https://libxc.gitlab.io

 This ORCA versions uses:
   CBLAS   interface :  Fast vector & matrix operations
   LAPACKE interface :  Fast linear algebra routines
   SCALAPACK package :  Parallel linear algebra routines
   Shared memory     :  Shared parallel matrices
   BLAS/LAPACK       :  OpenBLAS 0.3.27  USE64BITINT DYNAMIC_ARCH NO_AFFINITY Cooperlake SINGLE_THREADED
        Core in use  :  Cooperlake
   Copyright (c) 2011-2014, The OpenBLAS Project


Warning: RI is on but no J-basis has been assigned. Assigning Def2/J (nothing to worry about!)
================================================================================

----- Orbital basis set information -----
Your calculation utilizes the basis: 6-311G*
   H, Li - Ne  : R. Krishnan, J. S. Binkley, R. Seeger and J. A. Pople, J. Chem. Phys. 72, 650 (1980).
   Na - Ar     : A. D. McLean and G. S. Chandler J. Chem. Phys. 72, 5639, (1980).
   K  - Ca     : J.-P. Blaudeau, M. P. McGrath, L. A. Curtiss and L. Radom, J. Chem. Phys. 107, 5016 (1997).
   Ga - Kr     : L. A. Curtiss, M. P. McGrath, J.-P. Blandeau, N. E. Davis, R. C. Binning and L. Radom, J. Chem. Phys. 103, 6104 (1995).
   Pol./Diff.
   H, Li - Cl  : T. Clark, J. Chandrasekhar and P. v. R. Schleyer, J. Comp. Chem. 4, 294 (1983).
   H - Ne      : M. J. Frisch, J. A. Pople and J. S. Binkley, J. Chem. Phys. 80, 3265 (1984).

----- AuxJ basis set information -----
Your calculation utilizes the auxiliary basis: def2/J
   F. Weigend, Phys. Chem. Chem. Phys. 8, 1057 (2006).

================================================================================
                                        WARNINGS
                       Please study these warnings very carefully!
================================================================================


WARNING: Geometry Optimization
  ===> : Switching off AutoStart
         For restart on a previous wavefunction, please use MOREAD

================================================================================
                                       INPUT FILE
================================================================================
NAME = 1globalminimum.inp
|  1> ! B3LYP/G OPT FREQ 6-311G* CPCM(Water)
|  2> 
|  3> * xyz 1 1 
|  4> C  -3.49414694950469950641 -0.53534191809082165570 1.90071000668259726396
|  5> C  -3.35374755829604254131 -1.31878600318279293191 3.04710185850437875743
|  6> C  -2.13274417099043489543 -1.44988857731619424918 3.66079511027437076720
|  7> C  -2.42893003288651598837 0.19822519205263974817 1.42897269135435345255
|  8> C  -1.18662926180218586403 0.17275894044015985274 2.11050106247039037655
|  9> O  -2.42177780400034103891 0.85821420282239291311 0.22389232508410100708
| 10> C  -1.02146436880171798123 -0.74209069540318328695 3.18365716550044286492
| 11> C  0.28248874100098941842 -0.97776885451638018143 3.70981327867297094869
| 12> C  1.37793800211502603936 -0.41853000249798760768 3.14459394379684287202
| 13> C  -0.06201743997598262864 0.94649708860604975236 1.70555006648514395629
| 14> C  1.24130211648043564665 0.55677959482278727155 2.11610767213666406406
| 15> N  -0.19101556616996528959 2.06727830721119820723 0.94479840164835571237
| 16> C  0.87264100473383521273 2.62582745476582735122 0.35217270046584508991
| 17> C  2.15102212170543438674 2.15269546492971164398 0.55887594966926490425
| 18> C  2.34544469712765746294 1.17043450991138686668 1.51382902780499728479
| 19> C  -3.57282639123422773864 1.21274734009732854112 -0.44468443430036785902
| 20> O  -4.62698944869634942734 1.44376175130044792638 0.12511507123483006643
| 21> N  -3.37072000657940140655 1.30000951862791280789 -1.75563859793361198847
| 22> C  -2.09924891259674550881 1.04281176977273792872 -2.39891668373896393973
| 23> C  -4.41706882925341126622 1.81165985386577998995 -2.61439778224335483969
| 24> H  -4.07600935727716695567 2.71716903815111443521 -3.11532206873869998986
| 25> H  -5.29503203941215527806 2.03677947114048407684 -2.01293539881738281494
| 26> H  -4.67875381161369041649 1.06353945593897325494 -3.36292416224484824738
| 27> H  -2.29526614923541938396 0.60753457433642077401 -3.37692443798560359980
| 28> H  -1.51084963455095233620 0.34730847439374695762 -1.80776168056543951046
| 29> H  -1.54281185774588580628 1.97237259117052809998 -2.52202901918526656289
| 30> H  -2.01130211356500421260 -2.11507175052149198891 4.50044363588308993229
| 31> H  -4.43914216827280316835 -0.50356926525230971681 1.38289952002596239211
| 32> H  -4.21193474974572001912 -1.85848337945265074111 3.41428935575267855640
| 33> H  0.37470505324360969812 -1.67072883929759763433 4.53087931473702454355
| 34> H  2.37165889026603116108 -0.67445878554148108730 3.47424725814248658295
| 35> H  0.66753464217273694725 3.49024543654863661502 -0.26124367077787657987
| 36> H  2.97969060797124329909 2.60136180227165780821 0.03718331335072636024
| 37> H  3.33984664743914816398 0.87133079049079875666 1.80688307993985941557
| 38> P  -1.55842791880170383756 3.16348658793514436738 1.17105586248750470624
| 39> O  -2.52261398919854817890 2.74476641582679947717 2.19011306646340697668
| 40> O  -1.94233611447705012409 3.41882853930654517782 -0.32722419125557000719
| 41> O  -0.79484877901051420590 4.50043756149723339632 1.56406723003042125164
| 42> C  -2.51646345192476106334 4.65996459419848019223 -0.77811079053213039192
| 43> C  -0.67647035044830428063 4.89483883157696997301 2.93501166797719603707
| 44> C  -3.80821522740905438198 4.98233392845065115040 -0.05539192151942049641
| 45> H  -2.69067103026699205870 4.50351588144346859366 -1.84379287735435903883
| 46> H  -1.78790159461462994095 5.46038643110159505056 -0.63171825946130677476
| 47> H  -4.50683157887587970691 4.15042875286627133136 -0.13139128703917901664
| 48> H  -4.26305186505629940541 5.86944544930948541861 -0.48558043521284988131
| 49> H  -3.61361622684915495540 5.15795542635471537807 1.00201182695035662107
| 50> C  0.40037243921593013152 4.10555429443943431522 3.65469580088561407649
| 51> H  -1.64350691485886124532 4.75529021414604446960 3.42728324795627603550
| 52> H  -0.43391328080600616302 5.95824140166928106765 2.89849817667505282870
| 53> H  1.34106808366003615873 4.16701386118276317916 3.11385987100210259726
| 54> H  0.09914551904199067622 3.06363381304833204410 3.74848822682565341324
| 55> H  0.53812835132303427077 4.51631347381518288842 4.65044090693299150274
| 56> *
| 57> 
| 58> 
| 59>                          ****END OF INPUT****
================================================================================

                       *****************************
                       * Geometry Optimization Run *
                       *****************************

Geometry optimization settings:
Update method            Update   .... BFGS
Choice of coordinates    CoordSys .... (2022) Redundant Internals
Initial Hessian          InHess   .... Almloef's Model
Max. no of cycles        MaxIter  .... 156

Convergence Tolerances:
Energy Change            TolE     ....  5.0000e-06 Eh
Max. Gradient            TolMAXG  ....  3.0000e-04 Eh/bohr
RMS Gradient             TolRMSG  ....  1.0000e-04 Eh/bohr
Max. Displacement        TolMAXD  ....  4.0000e-03 bohr
RMS Displacement         TolRMSD  ....  2.0000e-03 bohr
Strict Convergence                .... False

------------------------------------------------------------------------------
                        ORCA OPTIMIZATION COORDINATE SETUP
------------------------------------------------------------------------------

The optimization will be done in redundant internal coordinates (2022)
Making redundant internal coordinates   ...  (2022 redundants) done
Evaluating the initial hessian          ...  (Almloef) done
Evaluating the coordinates              ...  done
Calculating the B-matrix                .... done
Calculating the G-matrix                .... done
Diagonalizing the G-matrix              .... done
Small eigenvalue found = 1.711e-03
Small eigenvalue found = 4.427e-03
Small eigenvalue found = 5.143e-03
Small eigenvalue found = 7.741e-03
Small eigenvalue found = 1.148e-02
Small eigenvalue found = 1.218e-02
Small eigenvalue found = 1.783e-02
Small eigenvalue found = 2.226e-02
Small eigenvalue found = 2.446e-02
Small eigenvalue found = 2.762e-02
The first mode is                       ....  109
The number of degrees of freedom        ....  150

    -----------------------------------------------------------------
                    Redundant Internal Coordinates


    -----------------------------------------------------------------
         Definition                    Initial Value    Approx d2E/dq
    -----------------------------------------------------------------
      1. B(C   1,C   0)                  1.3956         0.612065   
      2. B(C   2,C   1)                  1.3728         0.665481   
      3. B(C   3,C   0)                  1.3767         0.656046   
      4. B(C   4,C   3)                  1.4172         0.565394   
      5. B(O   5,C   3)                  1.3740         0.593491   
      6. B(C   6,C   4)                  1.4198         0.559964   
      7. B(C   6,C   2)                  1.4013         0.599438   
      8. B(C   7,C   6)                  1.4257         0.547960   
      9. B(C   8,C   7)                  1.3536         0.714191   
     10. B(C   9,C   4)                  1.4239         0.551696   
     11. B(C  10,C   9)                  1.4209         0.557662   
     12. B(C  10,C   8)                  1.4240         0.551501   
     13. B(N  11,C   9)                  1.3607         0.623167   
     14. B(C  12,N  11)                  1.3396         0.673401   
     15. B(C  13,C  12)                  1.3787         0.651257   
     16. B(C  14,C  13)                  1.3837         0.639471   
     17. B(C  14,C  10)                  1.3994         0.603492   
     18. B(C  15,O   5)                  1.3775         0.585819   
     19. B(O  16,C  15)                  1.2204         1.043547   
     20. B(N  17,C  15)                  1.3293         0.699365   
     21. B(C  18,N  17)                  1.4480         0.452272   
     22. B(C  19,N  17)                  1.4471         0.453707   
     23. B(H  20,C  19)                  1.0896         0.360651   
     24. B(H  21,C  19)                  1.0878         0.363055   
     25. B(H  22,C  19)                  1.0902         0.359885   
     26. B(H  23,C  18)                  1.0883         0.362361   
     27. B(H  24,C  18)                  1.0860         0.365426   
     28. B(H  25,C  18)                  1.0903         0.359638   
     29. B(H  26,C   2)                  1.0781         0.376238   
     30. B(H  27,C   0)                  1.0780         0.376285   
     31. B(H  28,C   1)                  1.0782         0.376008   
     32. B(H  29,C   7)                  1.0784         0.375841   
     33. B(H  30,C   8)                  1.0778         0.376607   
     34. B(H  31,C  12)                  1.0796         0.374105   
     35. B(H  32,C  13)                  1.0771         0.377568   
     36. B(H  33,C  14)                  1.0790         0.374989   
     37. B(P  34,N  11)                  1.7671         0.470666   
     38. B(O  35,P  34)                  1.4641         1.432908   
     39. B(O  36,P  34)                  1.5676         0.979468   
     40. B(O  37,P  34)                  1.5890         0.905448   
     41. B(C  38,O  36)                  1.4399         0.465852   
     42. B(C  39,O  37)                  1.4315         0.480553   
     43. B(C  40,C  38)                  1.5149         0.394909   
     44. B(H  41,H  20)                  2.5936         0.000275   
     45. B(H  41,C  38)                  1.0911         0.358646   
     46. B(H  42,C  38)                  1.0922         0.357197   
     47. B(H  43,C  40)                  1.0890         0.361434   
     48. B(H  44,C  40)                  1.0858         0.365734   
     49. B(H  45,C  40)                  1.0894         0.360881   
     50. B(C  46,C  39)                  1.5167         0.392220   
     51. B(H  47,C  39)                  1.0941         0.354770   
     52. B(H  48,C  39)                  1.0913         0.358350   
     53. B(H  49,C  46)                  1.0868         0.364324   
     54. B(H  50,C  46)                  1.0886         0.361906   
     55. B(H  51,C  46)                  1.0859         0.365547   
     56. A(C   1,C   0,C   3)          120.1818         0.437490   
     57. A(C   1,C   0,H  27)          119.9529         0.354772   
     58. A(C   3,C   0,H  27)          119.8653         0.358979   
     59. A(C   0,C   1,C   2)          120.6830         0.438619   
     60. A(C   0,C   1,H  28)          118.7278         0.354728   
     61. A(C   2,C   1,H  28)          120.5216         0.359808   
     62. A(C   1,C   2,H  26)          120.4829         0.359846   
     63. A(C   6,C   2,H  26)          119.1779         0.353514   
     64. A(C   1,C   2,C   6)          120.3241         0.436973   
     65. A(C   4,C   3,O   5)          115.2044         0.420861   
     66. A(C   0,C   3,O   5)          124.0906         0.432221   
     67. A(C   0,C   3,C   4)          120.2580         0.431290   
     68. A(C   6,C   4,C   9)          118.2436         0.417411   
     69. A(C   3,C   4,C   9)          123.0809         0.418129   
     70. A(C   3,C   4,C   6)          118.4918         0.419239   
     71. A(C   3,O   5,C  15)          123.0214         0.420784   
     72. A(C   4,C   6,C   7)          119.4619         0.416906   
     73. A(C   2,C   6,C   7)          121.0748         0.422001   
     74. A(C   2,C   6,C   4)          119.3783         0.423638   
     75. A(C   6,C   7,H  29)          117.7382         0.348130   
     76. A(C   6,C   7,C   8)          121.1828         0.435468   
     77. A(C   8,C   7,H  29)          120.9457         0.364145   
     78. A(C  10,C   8,H  30)          118.1654         0.348628   
     79. A(C   7,C   8,H  30)          121.3546         0.364272   
     80. A(C   7,C   8,C  10)          120.4587         0.435973   
     81. A(C   4,C   9,C  10)          119.5535         0.417105   
     82. A(C  10,C   9,N  11)          118.3202         0.423502   
     83. A(C   4,C   9,N  11)          122.1214         0.422688   
     84. A(C   9,C  10,C  14)          118.6241         0.423837   
     85. A(C   8,C  10,C  14)          122.3761         0.422996   
     86. A(C   8,C  10,C   9)          118.9830         0.417078   
     87. A(C   9,N  11,P  34)          120.8460         0.435890   
     88. A(C   9,N  11,C  12)          121.0301         0.435216   
     89. A(C  12,N  11,P  34)          114.3559         0.442031   
     90. A(N  11,C  12,H  31)          115.7440         0.357991   
     91. A(N  11,C  12,C  13)          121.7906         0.441590   
     92. A(C  13,C  12,H  31)          122.4191         0.358178   
     93. A(C  12,C  13,H  32)          119.8545         0.358740   
     94. A(C  12,C  13,C  14)          118.5138         0.440380   
     95. A(C  14,C  13,H  32)          121.4581         0.357627   
     96. A(C  10,C  14,H  33)          119.2551         0.353718   
     97. A(C  10,C  14,C  13)          119.8312         0.434373   
     98. A(C  13,C  14,H  33)          120.9131         0.357211   
     99. A(O  16,C  15,N  17)          125.4060         0.481415   
    100. A(O   5,C  15,N  17)          111.6228         0.433343   
    101. A(O   5,C  15,O  16)          122.9491         0.465991   
    102. A(C  18,N  17,C  19)          115.7276         0.383458   
    103. A(C  15,N  17,C  19)          119.9019         0.413990   
    104. A(C  15,N  17,C  18)          124.0542         0.413758   
    105. A(N  17,C  18,H  25)          110.2950         0.332631   
    106. A(H  23,C  18,H  24)          109.3062         0.291798   
    107. A(H  23,C  18,H  25)          109.3556         0.291067   
    108. A(N  17,C  18,H  24)          110.3460         0.333513   
    109. A(N  17,C  18,H  23)          108.1874         0.333048   
    110. A(H  24,C  18,H  25)          109.3264         0.291452   
    111. A(H  21,C  19,H  22)          109.1432         0.291186   
    112. A(H  20,C  19,H  22)          109.2556         0.290882   
    113. A(N  17,C  19,H  22)          109.7790         0.332844   
    114. A(H  20,C  19,H  21)          109.5637         0.291283   
    115. A(N  17,C  19,H  21)          109.1866         0.333328   
    116. A(N  17,C  19,H  20)          109.8969         0.332961   
    117. A(N  11,P  34,O  36)           99.6817         0.506536   
    118. A(N  11,P  34,O  35)          114.9176         0.544084   
    119. A(O  36,P  34,O  37)          102.5345         0.573181   
    120. A(O  35,P  34,O  37)          112.6404         0.616722   
    121. A(N  11,P  34,O  37)          100.4722         0.499176   
    122. A(O  35,P  34,O  36)          123.4058         0.626192   
    123. A(P  34,O  36,C  38)          122.5022         0.472381   
    124. A(P  34,O  37,C  39)          120.5597         0.468280   
    125. A(H  41,C  38,H  42)          110.0290         0.290286   
    126. A(C  40,C  38,H  42)          110.4205         0.326859   
    127. A(O  36,C  38,H  42)          108.8893         0.333890   
    128. A(C  40,C  38,H  41)          111.1206         0.327077   
    129. A(O  36,C  38,H  41)          104.2356         0.334115   
    130. A(O  36,C  38,C  40)          111.9644         0.378652   
    131. A(C  46,C  39,H  48)          111.4165         0.326665   
    132. A(O  37,C  39,H  48)          104.7625         0.335799   
    133. A(C  46,C  39,H  47)          110.3448         0.326126   
    134. A(O  37,C  39,H  47)          108.8257         0.335238   
    135. A(O  37,C  39,C  46)          111.7015         0.380246   
    136. A(H  47,C  39,H  48)          109.6210         0.289938   
    137. A(H  44,C  40,H  45)          109.1280         0.291649   
    138. A(H  43,C  40,H  45)          107.7872         0.291108   
    139. A(C  38,C  40,H  45)          110.1849         0.327412   
    140. A(H  43,C  40,H  44)          109.1328         0.291719   
    141. A(C  38,C  40,H  44)          110.0017         0.328134   
    142. A(C  38,C  40,H  43)          110.5592         0.327495   
    143. A(H  50,C  46,H  51)          108.5498         0.291756   
    144. A(H  49,C  46,H  51)          108.9727         0.292062   
    145. A(C  39,C  46,H  51)          109.1668         0.327737   
    146. A(H  49,C  46,H  50)          109.6634         0.291602   
    147. A(C  39,C  46,H  50)          110.0281         0.327197   
    148. A(C  39,C  46,H  49)          110.4239         0.327556   
    149. D(C   2,C   1,C   0,C   3)     -4.9434         0.025883   
    150. D(H  28,C   1,C   0,H  27)     -1.9370         0.025883   
    151. D(C   2,C   1,C   0,H  27)    175.0894         0.025883   
    152. D(H  28,C   1,C   0,C   3)    178.0302         0.025883   
    153. D(C   6,C   2,C   1,H  28)   -179.7240         0.030941   
    154. D(H  26,C   2,C   1,C   0)   -175.2723         0.030941   
    155. D(C   6,C   2,C   1,C   0)      3.3032         0.030941   
    156. D(H  26,C   2,C   1,H  28)      1.7006         0.030941   
    157. D(C   4,C   3,C   0,H  27)    179.3873         0.030007   
    158. D(O   5,C   3,C   0,C   1)    171.3722         0.030007   
    159. D(O   5,C   3,C   0,H  27)     -8.6606         0.030007   
    160. D(C   4,C   3,C   0,C   1)     -0.5799         0.030007   
    161. D(C   6,C   4,C   3,O   5)   -165.1570         0.021914   
    162. D(C   9,C   4,C   3,C   0)   -177.5372         0.021914   
    163. D(C   6,C   4,C   3,C   0)      7.4808         0.021914   
    164. D(C   9,C   4,C   3,O   5)      9.8250         0.021914   
    165. D(C  15,O   5,C   3,C   4)   -166.7440         0.025689   
    166. D(C  15,O   5,C   3,C   0)     20.9367         0.025689   
    167. D(C   7,C   6,C   4,C   9)     -7.5708         0.021478   
    168. D(C   2,C   6,C   4,C   9)    175.7449         0.021478   
    169. D(C   2,C   6,C   4,C   3)     -9.0274         0.021478   
    170. D(C   7,C   6,C   4,C   3)    167.6569         0.021478   
    171. D(C   7,C   6,C   2,H  26)      5.7186         0.024769   
    172. D(C   4,C   6,C   2,H  26)   -177.6521         0.024769   
    173. D(C   4,C   6,C   2,C   1)      3.7539         0.024769   
    174. D(C   7,C   6,C   2,C   1)   -172.8754         0.024769   
    175. D(H  29,C   7,C   6,C   4)    179.4220         0.020535   
    176. D(H  29,C   7,C   6,C   2)     -3.9515         0.020535   
    177. D(C   8,C   7,C   6,C   4)     -4.7364         0.020535   
    178. D(C   8,C   7,C   6,C   2)    171.8902         0.020535   
    179. D(C  10,C   8,C   7,C   6)      8.1544         0.036049   
    180. D(H  30,C   8,C   7,H  29)      2.1568         0.036049   
    181. D(H  30,C   8,C   7,C   6)   -173.5516         0.036049   
    182. D(C  10,C   8,C   7,H  29)   -176.1371         0.036049   
    183. D(N  11,C   9,C   4,C   6)   -162.7969         0.020826   
    184. D(N  11,C   9,C   4,C   3)     22.2093         0.020826   
    185. D(C  10,C   9,C   4,C   6)     16.3826         0.020826   
    186. D(C  10,C   9,C   4,C   3)   -158.6112         0.020826   
    187. D(C  14,C  10,C   9,N  11)    -12.5484         0.021296   
    188. D(C  14,C  10,C   9,C   4)    168.2410         0.021296   
    189. D(C   8,C  10,C   9,N  11)    166.0001         0.021296   
    190. D(C   8,C  10,C   9,C   4)    -13.2105         0.021296   
    191. D(C  14,C  10,C   8,H  30)      0.9851         0.020811   
    192. D(C  14,C  10,C   8,C   7)    179.3325         0.020811   
    193. D(C   9,C  10,C   8,H  30)   -177.5062         0.020811   
    194. D(C   9,C  10,C   8,C   7)      0.8412         0.020811   
    195. D(P  34,N  11,C   9,C  10)   -142.5067         0.031471   
    196. D(P  34,N  11,C   9,C   4)     36.6824         0.031471   
    197. D(C  12,N  11,C   9,C  10)     14.3953         0.031471   
    198. D(C  12,N  11,C   9,C   4)   -166.4155         0.031471   
    199. D(H  31,C  12,N  11,P  34)    -23.9240         0.037245   
    200. D(H  31,C  12,N  11,C   9)    177.7741         0.037245   
    201. D(C  13,C  12,N  11,P  34)    153.6581         0.037245   
    202. D(C  13,C  12,N  11,C   9)     -4.6437         0.037245   
    203. D(H  32,C  13,C  12,H  31)     -4.9178         0.029539   
    204. D(H  32,C  13,C  12,N  11)    177.6623         0.029539   
    205. D(C  14,C  13,C  12,H  31)    170.3659         0.029539   
    206. D(C  14,C  13,C  12,N  11)     -7.0540         0.029539   
    207. D(C  10,C  14,C  13,C  12)      8.4287         0.028408   
    208. D(H  33,C  14,C  10,C   9)   -179.0579         0.025123   
    209. D(H  33,C  14,C  10,C   8)      2.4456         0.025123   
    210. D(C  13,C  14,C  10,C   9)      1.2301         0.025123   
    211. D(C  13,C  14,C  10,C   8)   -177.2664         0.025123   
    212. D(H  33,C  14,C  13,H  32)      3.9263         0.028408   
    213. D(H  33,C  14,C  13,C  12)   -171.2784         0.028408   
    214. D(C  10,C  14,C  13,H  32)   -176.3666         0.028408   
    215. D(N  17,C  15,O   5,C   3)   -153.3188         0.024989   
    216. D(O  16,C  15,O   5,C   3)     28.3057         0.024989   
    217. D(C  19,N  17,C  15,O  16)      5.5408         0.040468   
    218. D(C  19,N  17,C  15,O   5)   -172.7867         0.040468   
    219. D(C  18,N  17,C  15,O  16)    178.7986         0.040468   
    220. D(C  18,N  17,C  15,O   5)      0.4712         0.040468   
    221. D(H  25,C  18,N  17,C  15)    -93.7391         0.017452   
    222. D(H  24,C  18,N  17,C  19)   -159.3306         0.017452   
    223. D(H  24,C  18,N  17,C  15)     27.1560         0.017452   
    224. D(H  23,C  18,N  17,C  19)    -39.7933         0.017452   
    225. D(H  23,C  18,N  17,C  15)    146.6934         0.017452   
    226. D(H  22,C  19,N  17,C  15)   -121.5558         0.017564   
    227. D(H  21,C  19,N  17,C  18)   -175.7456         0.017564   
    228. D(H  21,C  19,N  17,C  15)     -1.9440         0.017564   
    229. D(H  20,C  19,N  17,C  18)    -55.5469         0.017564   
    230. D(H  20,C  19,N  17,C  15)    118.2546         0.017564   
    231. D(O  37,P  34,N  11,C   9)    119.5204         0.004958   
    232. D(O  36,P  34,N  11,C  12)     65.9735         0.004958   
    233. D(O  36,P  34,N  11,C   9)   -135.6808         0.004958   
    234. D(O  35,P  34,N  11,C  12)   -159.9912         0.004958   
    235. D(O  35,P  34,N  11,C   9)     -1.6454         0.004958   
    236. D(C  38,O  36,P  34,O  37)    -45.9129         0.016474   
    237. D(C  38,O  36,P  34,O  35)     82.3315         0.016474   
    238. D(C  38,O  36,P  34,N  11)   -149.0226         0.016474   
    239. D(C  39,O  37,P  34,O  36)    158.1880         0.014141   
    240. D(C  39,O  37,P  34,O  35)     23.4529         0.014141   
    241. D(C  39,O  37,P  34,N  11)    -99.3206         0.014141   
    242. D(H  42,C  38,O  36,P  34)     64.2989         0.017102   
    243. D(H  41,C  38,O  36,P  34)   -178.2968         0.017102   
    244. D(C  40,C  38,O  36,P  34)    -58.0875         0.017102   
    245. D(H  48,C  39,O  37,P  34)   -161.3216         0.018218   
    246. D(H  47,C  39,O  37,P  34)    -44.1457         0.018218   
    247. D(C  46,C  39,O  37,P  34)     77.9288         0.018218   
    248. D(H  44,C  40,C  38,H  42)     64.0344         0.012386   
    249. D(H  44,C  40,C  38,H  41)    -58.3498         0.012386   
    250. D(H  44,C  40,C  38,O  36)   -174.4562         0.012386   
    251. D(H  43,C  40,C  38,H  42)   -175.3651         0.012386   
    252. D(H  43,C  40,C  38,H  41)     62.2506         0.012386   
    253. D(H  43,C  40,C  38,O  36)    -53.8557         0.012386   
    254. D(H  50,C  46,C  39,H  48)    175.4744         0.012224   
    255. D(H  50,C  46,C  39,H  47)     53.4595         0.012224   
    256. D(H  50,C  46,C  39,O  37)    -67.7376         0.012224   
    257. D(H  49,C  46,C  39,H  48)    -63.3330         0.012224   
    258. D(H  49,C  46,C  39,H  47)    174.6521         0.012224   
    259. D(H  49,C  46,C  39,O  37)     53.4550         0.012224   
    -----------------------------------------------------------------

Number of atoms                         .... 52
Number of degrees of freedom            .... 259


         *************************************************************
         *                GEOMETRY OPTIMIZATION CYCLE   1            *
         *************************************************************
---------------------------------
CARTESIAN COORDINATES (ANGSTROEM)
---------------------------------
  C     -3.494147   -0.535342    1.900710
  C     -3.353748   -1.318786    3.047102
  C     -2.132744   -1.449889    3.660795
  C     -2.428930    0.198225    1.428973
  C     -1.186629    0.172759    2.110501
  O     -2.421778    0.858214    0.223892
  C     -1.021464   -0.742091    3.183657
  C      0.282489   -0.977769    3.709813
  C      1.377938   -0.418530    3.144594
  C     -0.062017    0.946497    1.705550
  C      1.241302    0.556780    2.116108
  N     -0.191016    2.067278    0.944798
  C      0.872641    2.625827    0.352173
  C      2.151022    2.152695    0.558876
  C      2.345445    1.170435    1.513829
  C     -3.572826    1.212747   -0.444684
  O     -4.626989    1.443762    0.125115
  N     -3.370720    1.300010   -1.755639
  C     -2.099249    1.042812   -2.398917
  C     -4.417069    1.811660   -2.614398
  H     -4.076009    2.717169   -3.115322
  H     -5.295032    2.036779   -2.012935
  H     -4.678754    1.063539   -3.362924
  H     -2.295266    0.607535   -3.376924
  H     -1.510850    0.347308   -1.807762
  H     -1.542812    1.972373   -2.522029
  H     -2.011302   -2.115072    4.500444
  H     -4.439142   -0.503569    1.382900
  H     -4.211935   -1.858483    3.414289
  H      0.374705   -1.670729    4.530879
  H      2.371659   -0.674459    3.474247
  H      0.667535    3.490245   -0.261244
  H      2.979691    2.601362    0.037183
  H      3.339847    0.871331    1.806883
  P     -1.558428    3.163487    1.171056
  O     -2.522614    2.744766    2.190113
  O     -1.942336    3.418829   -0.327224
  O     -0.794849    4.500438    1.564067
  C     -2.516463    4.659965   -0.778111
  C     -0.676470    4.894839    2.935012
  C     -3.808215    4.982334   -0.055392
  H     -2.690671    4.503516   -1.843793
  H     -1.787902    5.460386   -0.631718
  H     -4.506832    4.150429   -0.131391
  H     -4.263052    5.869445   -0.485580
  H     -3.613616    5.157955    1.002012
  C      0.400372    4.105554    3.654696
  H     -1.643507    4.755290    3.427283
  H     -0.433913    5.958241    2.898498
  H      1.341068    4.167014    3.113860
  H      0.099146    3.063634    3.748488
  H      0.538128    4.516313    4.650441

----------------------------
CARTESIAN COORDINATES (A.U.)
----------------------------
  NO LB      ZA    FRAG     MASS         X           Y           Z
   0 C     6.0000    0    12.011   -6.602981   -1.011650    3.591821
   1 C     6.0000    0    12.011   -6.337664   -2.492144    5.758188
   2 C     6.0000    0    12.011   -4.030302   -2.739892    6.917900
   3 C     6.0000    0    12.011   -4.590013    0.374591    2.700367
   4 C     6.0000    0    12.011   -2.242404    0.326467    3.988269
   5 O     8.0000    0    15.999   -4.576497    1.621790    0.423095
   6 C     6.0000    0    12.011   -1.930288   -1.402348    6.016240
   7 C     6.0000    0    12.011    0.533826   -1.847715    7.010531
   8 C     6.0000    0    12.011    2.603925   -0.790907    5.942421
   9 C     6.0000    0    12.011   -0.117196    1.788620    3.223023
  10 C     6.0000    0    12.011    2.345721    1.052161    3.998864
  11 N     7.0000    0    14.007   -0.360967    3.906590    1.785410
  12 C     6.0000    0    12.011    1.649053    4.962095    0.665510
  13 C     6.0000    0    12.011    4.064843    4.068005    1.056122
  14 C     6.0000    0    12.011    4.432248    2.211801    2.860722
  15 C     6.0000    0    12.011   -6.751663    2.291760   -0.840332
  16 O     8.0000    0    15.999   -8.743743    2.728314    0.236433
  17 N     7.0000    0    14.007   -6.369738    2.456662   -3.317676
  18 C     6.0000    0    12.011   -3.967006    1.970629   -4.533296
  19 C     6.0000    0    12.011   -8.347050    3.423541   -4.940496
  20 H     1.0000    0     1.008   -7.702541    5.134705   -5.887106
  21 H     1.0000    0     1.008  -10.006160    3.848955   -3.803897
  22 H     1.0000    0     1.008   -8.841563    2.009798   -6.355006
  23 H     1.0000    0     1.008   -4.337424    1.148074   -6.381462
  24 H     1.0000    0     1.008   -2.855092    0.656318   -3.416174
  25 H     1.0000    0     1.008   -2.915492    3.727244   -4.765944
  26 H     1.0000    0     1.008   -3.800810   -3.996906    8.504606
  27 H     1.0000    0     1.008   -8.388763   -0.951608    2.613301
  28 H     1.0000    0     1.008   -7.959403   -3.512025    6.452072
  29 H     1.0000    0     1.008    0.708090   -3.157220    8.562121
  30 H     1.0000    0     1.008    4.481786   -1.274542    6.565376
  31 H     1.0000    0     1.008    1.261458    6.595608   -0.493679
  32 H     1.0000    0     1.008    5.630799    4.915861    0.070266
  33 H     1.0000    0     1.008    6.311395    1.646577    3.414514
  34 P    15.0000    0    30.974   -2.945002    5.978123    2.212975
  35 O     8.0000    0    15.999   -4.767050    5.186857    4.138714
  36 O     8.0000    0    15.999   -3.670483    6.460650   -0.618364
  37 O     8.0000    0    15.999   -1.502047    8.504594    2.955659
  38 C     6.0000    0    12.011   -4.755427    8.806057   -1.470416
  39 C     6.0000    0    12.011   -1.278344    9.249905    5.546368
  40 C     6.0000    0    12.011   -7.196484    9.415247   -0.104676
  41 H     1.0000    0     1.008   -5.084631    8.510412   -3.484264
  42 H     1.0000    0     1.008   -3.378644   10.318635   -1.193775
  43 H     1.0000    0     1.008   -8.516677    7.843174   -0.248294
  44 H     1.0000    0     1.008   -8.056001   11.091644   -0.917614
  45 H     1.0000    0     1.008   -6.828745    9.747123    1.893528
  46 C     6.0000    0    12.011    0.756594    7.758373    6.906374
  47 H     1.0000    0     1.008   -3.105778    8.986196    6.476627
  48 H     1.0000    0     1.008   -0.819977   11.259444    5.477368
  49 H     1.0000    0     1.008    2.534251    7.874515    5.884342
  50 H     1.0000    0     1.008    0.187358    5.789429    7.083616
  51 H     1.0000    0     1.008    1.016915    8.534596    8.788060

--------------------------------
INTERNAL COORDINATES (ANGSTROEM)
--------------------------------
 C      0   0   0     0.000000000000     0.00000000     0.00000000
 C      1   0   0     1.395604134933     0.00000000     0.00000000
 C      2   1   0     1.372827944072   120.68299447     0.00000000
 C      1   2   3     1.376714886680   120.18178225   355.05656228
 C      4   1   2     1.417194643104   120.25803824   359.42006842
 O      4   1   2     1.373992481015   124.09063110   171.37221745
 C      3   2   1     1.401278437262   120.32411550     3.30315493
 C      7   3   2     1.425720225948   121.07484682   187.12462603
 C      8   7   3     1.353598933880   121.18279629   171.89015093
 C      5   4   1     1.423870703704   123.08089011   182.46282353
 C     10   5   4     1.420943045572   119.55347062   201.38881722
 N     10   5   4     1.360710899527   122.12141276    22.20933154
 C     12  10   5     1.339607283036   121.03014351   193.58453598
 C     13  12  10     1.378708958870   121.79064291   355.35625810
 C     14  13  12     1.383680636212   118.51383379   352.94596797
 C      6   4   1     1.377534565370   123.02143498    20.93666309
 O     16   6   4     1.220368340465   122.94913551    28.30568780
 N     16   6   4     1.329309030161   111.62282592   206.68117421
 C     18  16   6     1.447962748322   124.05416294     0.47115097
 C     18  16   6     1.447100294001   119.90189587   187.21332177
 H     20  18  16     1.089584134911   109.89694793   118.25464801
 H     20  18  16     1.087775362449   109.18656355   358.05597618
 H     20  18  16     1.090162786626   109.77904829   238.44421025
 H     19  18  16     1.088295989744   108.18744233   146.69336675
 H     19  18  16     1.086003122493   110.34600193    27.15604255
 H     19  18  16     1.090349560383   110.29501452   266.26087028
 H      3   2   1     1.078066080435   120.48286647   184.72769083
 H      1   2   3     1.078032079789   119.95293935   175.08937202
 H      2   1   3     1.078232429329   118.72783260   182.97365301
 H      8   7   3     1.078353756580   117.73821427   356.04848187
 H      9   8   7     1.077799634996   121.35463082   186.44837619
 H     13  12  10     1.079614149454   115.74398091   177.77407742
 H     14  13  12     1.077105449426   119.85454454   177.66225998
 H     15  14  13     1.078971246710   120.91309289   188.72164066
 P     12  10   5     1.767111081806   120.84596351    36.68244825
 O     35  12  10     1.464055649848   114.91763810   358.35461429
 O     35  12  10     1.567618618887    99.68174142   224.31923635
 O     35  12  10     1.589008792754   100.47222990   119.52038048
 C     37  35  12     1.439909591525   122.50217864   210.97736695
 C     38  35  12     1.431451873493   120.55970749   260.67940712
 C     39  37  35     1.514881909840   111.96440023   301.91249916
 H     39  37  35     1.091101640659   104.23557260   181.70319732
 H     39  37  35     1.092203401419   108.88930043    64.29891520
 H     41  39  37     1.088993540504   110.55919319   306.14426795
 H     41  39  37     1.085774090085   110.00173554   185.54382743
 H     41  39  37     1.089410101304   110.18490216    65.18918656
 C     40  38  35     1.516741812365   111.70153494    77.92879786
 H     40  38  35     1.094058884151   108.82568795   315.85431844
 H     40  38  35     1.091325887698   104.76246631   198.67839296
 H     47  40  38     1.086825228302   110.42386289    53.45497389
 H     47  40  38     1.088638124513   110.02809550   292.26239258
 H     47  40  38     1.085913491480   109.16676284   173.23803991

---------------------------
INTERNAL COORDINATES (A.U.)
---------------------------
 C      0   0   0     0.000000000000     0.00000000     0.00000000
 C      1   0   0     2.637309606391     0.00000000     0.00000000
 C      2   1   0     2.594268843290   120.68299447     0.00000000
 C      1   2   3     2.601614100318   120.18178225   355.05656228
 C      4   1   2     2.678109753928   120.25803824   359.42006842
 O      4   1   2     2.596469499185   124.09063110   171.37221745
 C      3   2   1     2.648032483795   120.32411550     3.30315493
 C      7   3   2     2.694220770633   121.07484682   187.12462603
 C      8   7   3     2.557931280200   121.18279629   171.89015093
 C      5   4   1     2.690725680115   123.08089011   182.46282353
 C     10   5   4     2.685193208032   119.55347062   201.38881722
 N     10   5   4     2.571370947548   122.12141276    22.20933154
 C     12  10   5     2.531490891944   121.03014351   193.58453598
 C     13  12  10     2.605382350647   121.79064291   355.35625810
 C     14  13  12     2.614777459251   118.51383379   352.94596797
 C      6   4   1     2.603163068559   123.02143498    20.93666309
 O     16   6   4     2.306161945987   122.94913551    28.30568780
 N     16   6   4     2.512030014353   111.62282592   206.68117421
 C     18  16   6     2.736253046448   124.05416294     0.47115097
 C     18  16   6     2.734623243978   119.90189587   187.21332177
 H     20  18  16     2.059015614848   109.89694793   118.25464801
 H     20  18  16     2.055597530255   109.18656355   358.05597618
 H     20  18  16     2.060109108116   109.77904829   238.44421025
 H     19  18  16     2.056581373261   108.18744233   146.69336675
 H     19  18  16     2.052248482095   110.34600193    27.15604255
 H     19  18  16     2.060462059366   110.29501452   266.26087028
 H      3   2   1     2.037249646292   120.48286647   184.72769083
 H      1   2   3     2.037185394383   119.95293935   175.08937202
 H      2   1   3     2.037564000144   118.72783260   182.97365301
 H      8   7   3     2.037793275421   117.73821427   356.04848187
 H      9   8   7     2.036746137382   121.35463082   186.44837619
 H     13  12  10     2.040175072775   115.74398091   177.77407742
 H     14  13  12     2.035434316769   119.85454454   177.66225998
 H     15  14  13     2.038960162658   120.91309289   188.72164066
 P     12  10   5     3.339355992831   120.84596351    36.68244825
 O     35  12  10     2.766664223034   114.91763810   358.35461429
 O     35  12  10     2.962369872132    99.68174142   224.31923635
 O     35  12  10     3.002791442699   100.47222990   119.52038048
 C     37  35  12     2.721034785588   122.50217864   210.97736695
 C     38  35  12     2.705052014790   120.55970749   260.67940712
 C     39  37  35     2.862711934829   111.96440023   301.91249916
 H     39  37  35     2.061883285117   104.23557260   181.70319732
 H     39  37  35     2.063965311220   108.88930043    64.29891520
 H     41  39  37     2.057899553163   110.55919319   306.14426795
 H     41  39  37     2.051815673569   110.00173554   185.54382743
 H     41  39  37     2.058686738992   110.18490216    65.18918656
 C     40  38  35     2.866226641237   111.70153494    77.92879786
 H     40  38  35     2.067471665428   108.82568795   315.85431844
 H     40  38  35     2.062307050607   104.76246631   198.67839296
 H     47  40  38     2.053802036927   110.42386289    53.45497389
 H     47  40  38     2.057227914275   110.02809550   292.26239258
 H     47  40  38     2.052079104028   109.16676284   173.23803991

---------------------
BASIS SET INFORMATION
---------------------
There are 5 groups of distinct atoms

 Group   1 Type C   : 11s5p1d contracted to 4s3p1d pattern {6311/311/1}
 Group   2 Type O   : 11s5p1d contracted to 4s3p1d pattern {6311/311/1}
 Group   3 Type N   : 11s5p1d contracted to 4s3p1d pattern {6311/311/1}
 Group   4 Type H   : 5s contracted to 3s pattern {311}
 Group   5 Type P   : 13s9p1d contracted to 6s5p1d pattern {631111/42111/1}

Atom   0C    basis set group =>   1
Atom   1C    basis set group =>   1
Atom   2C    basis set group =>   1
Atom   3C    basis set group =>   1
Atom   4C    basis set group =>   1
Atom   5O    basis set group =>   2
Atom   6C    basis set group =>   1
Atom   7C    basis set group =>   1
Atom   8C    basis set group =>   1
Atom   9C    basis set group =>   1
Atom  10C    basis set group =>   1
Atom  11N    basis set group =>   3
Atom  12C    basis set group =>   1
Atom  13C    basis set group =>   1
Atom  14C    basis set group =>   1
Atom  15C    basis set group =>   1
Atom  16O    basis set group =>   2
Atom  17N    basis set group =>   3
Atom  18C    basis set group =>   1
Atom  19C    basis set group =>   1
Atom  20H    basis set group =>   4
Atom  21H    basis set group =>   4
Atom  22H    basis set group =>   4
Atom  23H    basis set group =>   4
Atom  24H    basis set group =>   4
Atom  25H    basis set group =>   4
Atom  26H    basis set group =>   4
Atom  27H    basis set group =>   4
Atom  28H    basis set group =>   4
Atom  29H    basis set group =>   4
Atom  30H    basis set group =>   4
Atom  31H    basis set group =>   4
Atom  32H    basis set group =>   4
Atom  33H    basis set group =>   4
Atom  34P    basis set group =>   5
Atom  35O    basis set group =>   2
Atom  36O    basis set group =>   2
Atom  37O    basis set group =>   2
Atom  38C    basis set group =>   1
Atom  39C    basis set group =>   1
Atom  40C    basis set group =>   1
Atom  41H    basis set group =>   4
Atom  42H    basis set group =>   4
Atom  43H    basis set group =>   4
Atom  44H    basis set group =>   4
Atom  45H    basis set group =>   4
Atom  46C    basis set group =>   1
Atom  47H    basis set group =>   4
Atom  48H    basis set group =>   4
Atom  49H    basis set group =>   4
Atom  50H    basis set group =>   4
Atom  51H    basis set group =>   4
---------------------------------
AUXILIARY/J BASIS SET INFORMATION
---------------------------------
There are 5 groups of distinct atoms

 Group   1 Type C   : 12s5p4d2f1g contracted to 6s4p3d1f1g pattern {711111/2111/211/2/1}
 Group   2 Type O   : 12s5p4d2f1g contracted to 6s4p3d1f1g pattern {711111/2111/211/2/1}
 Group   3 Type N   : 12s5p4d2f1g contracted to 6s4p3d1f1g pattern {711111/2111/211/2/1}
 Group   4 Type H   : 5s2p1d contracted to 3s1p1d pattern {311/2/1}
 Group   5 Type P   : 14s5p5d2f1g contracted to 8s4p3d1f1g pattern {71111111/2111/311/2/1}

Atom   0C    basis set group =>   1
Atom   1C    basis set group =>   1
Atom   2C    basis set group =>   1
Atom   3C    basis set group =>   1
Atom   4C    basis set group =>   1
Atom   5O    basis set group =>   2
Atom   6C    basis set group =>   1
Atom   7C    basis set group =>   1
Atom   8C    basis set group =>   1
Atom   9C    basis set group =>   1
Atom  10C    basis set group =>   1
Atom  11N    basis set group =>   3
Atom  12C    basis set group =>   1
Atom  13C    basis set group =>   1
Atom  14C    basis set group =>   1
Atom  15C    basis set group =>   1
Atom  16O    basis set group =>   2
Atom  17N    basis set group =>   3
Atom  18C    basis set group =>   1
Atom  19C    basis set group =>   1
Atom  20H    basis set group =>   4
Atom  21H    basis set group =>   4
Atom  22H    basis set group =>   4
Atom  23H    basis set group =>   4
Atom  24H    basis set group =>   4
Atom  25H    basis set group =>   4
Atom  26H    basis set group =>   4
Atom  27H    basis set group =>   4
Atom  28H    basis set group =>   4
Atom  29H    basis set group =>   4
Atom  30H    basis set group =>   4
Atom  31H    basis set group =>   4
Atom  32H    basis set group =>   4
Atom  33H    basis set group =>   4
Atom  34P    basis set group =>   5
Atom  35O    basis set group =>   2
Atom  36O    basis set group =>   2
Atom  37O    basis set group =>   2
Atom  38C    basis set group =>   1
Atom  39C    basis set group =>   1
Atom  40C    basis set group =>   1
Atom  41H    basis set group =>   4
Atom  42H    basis set group =>   4
Atom  43H    basis set group =>   4
Atom  44H    basis set group =>   4
Atom  45H    basis set group =>   4
Atom  46C    basis set group =>   1
Atom  47H    basis set group =>   4
Atom  48H    basis set group =>   4
Atom  49H    basis set group =>   4
Atom  50H    basis set group =>   4
Atom  51H    basis set group =>   4
------------------------------------------------------------------------------
                             ORCA STARTUP CALCULATIONS
                           -- RI-GTO INTEGRALS CHOSEN --
------------------------------------------------------------------------------
------------------------------------------------------------------------------
                   ___                                                        
                  /   \      - P O W E R E D   B Y -                         
                 /     \                                                     
                 |  |  |   _    _      __       _____    __    __             
                 |  |  |  | |  | |    /  \     |  _  \  |  |  /  |          
                  \  \/   | |  | |   /    \    | | | |  |  | /  /          
                 / \  \   | |__| |  /  /\  \   | |_| |  |  |/  /          
                |  |  |   |  __  | /  /__\  \  |    /   |      \           
                |  |  |   | |  | | |   __   |  |    \   |  |\   \          
                \     /   | |  | | |  |  |  |  | |\  \  |  | \   \       
                 \___/    |_|  |_| |__|  |__|  |_| \__\ |__|  \__/        
                                                                              
                      - O R C A' S   B I G   F R I E N D -                    
                                      &                                       
                       - I N T E G R A L  F E E D E R -                       
                                                                              
 v1 FN, 2020, v2 2021, v3 2022-2024                                           
------------------------------------------------------------------------------


----------------------
SHARK INTEGRAL PACKAGE
----------------------

Number of atoms                             ...     52
Number of basis functions                   ...    584
Number of shells                            ...    300
Maximum angular momentum                    ...      2
Integral batch strategy                     ... SHARK/LIBINT Hybrid
RI-J (if used) integral strategy            ... SPLIT-RIJ (Revised 2003 algorithm where possible)
Printlevel                                  ...      1
Contraction scheme used                     ... SEGMENTED contraction
Prescreening option                         ... SCHWARTZ
   Thresh                                   ... 2.500e-11
   Tcut                                     ... 2.500e-12
   Tpresel                                  ... 2.500e-12 
Coulomb Range Separation                    ... NOT USED
Exchange Range Separation                   ... NOT USED
Multipole approximations                    ... NOT USED
Finite Nucleus Model                        ... NOT USED
CABS basis                                  ... NOT available
Auxiliary Coulomb fitting basis             ... AVAILABLE
   # of basis functions in Aux-J            ...   1638
   # of shells in Aux-J                     ...    542
   Maximum angular momentum in Aux-J        ...      4
Auxiliary J/K fitting basis                 ... NOT available
Auxiliary Correlation fitting basis         ... NOT available
Auxiliary 'external' fitting basis          ... NOT available

Checking pre-screening integrals            ... done (  0.0 sec) Dimension = 300
Check shell pair data                       ... done (  0.0 sec)
Shell pair information
Shell pair cut-off parameter TPreSel        ...   2.5e-12
Total number of shell pairs                 ...     45150
Shell pairs after pre-screening             ...     30933
Total number of primitive shell pairs       ...    182167
Primitive shell pairs kept                  ...     72409
          la=0 lb=0:  11188 shell pairs
          la=1 lb=0:  11423 shell pairs
          la=1 lb=1:   2960 shell pairs
          la=2 lb=0:   3304 shell pairs
          la=2 lb=1:   1778 shell pairs
          la=2 lb=2:    280 shell pairs

Calculating one electron integrals          ... done (  0.1 sec)
Calculating RI/J V-Matrix + Cholesky decomp.... done (  0.6 sec)
Calculating Nuclear repulsion               ... done (  0.0 sec) ENN=   3224.999639015673 Eh

Diagonalization of the overlap matrix:
Smallest eigenvalue                        ... 8.534e-05
Time for diagonalization                   ...    0.026 sec
Threshold for overlap eigenvalues          ... 1.000e-07
Number of eigenvalues below threshold      ... 0
Time for construction of square roots      ...    0.039 sec
Total time needed                          ...    0.074 sec

-------------------
DFT GRID GENERATION
-------------------

General Integration Accuracy     IntAcc      ... 4.388
Radial Grid Type                 RadialGrid  ... OptM3 with GC (2021)
Angular Grid (max. ang.)         AngularGrid ... 4 (Lebedev-302)
Angular grid pruning method      GridPruning ... 4 (adaptive)
Weight generation scheme         WeightScheme... mBecke (2022)
Basis function cutoff            BFCut       ... 1.0000e-11
Integration weight cutoff        WCut        ... 1.0000e-14
Partially contracted basis set               ... off
Rotationally invariant grid construction     ... off
Angular grids for H and He will be reduced by one unit

Total number of grid points                  ...   243738
Total number of batches                      ...     3835
Average number of points per batch           ...       63
Average number of grid points per atom       ...     4687

--------------------
COSX GRID GENERATION
--------------------

GRIDX 1
-------
General Integration Accuracy     IntAcc      ... 3.816
Radial Grid Type                 RadialGrid  ... OptM3 with GC (2021)
Angular Grid (max. ang.)         AngularGrid ... 1 (Lebedev-50)
Angular grid pruning method      GridPruning ... 4 (adaptive)
Weight generation scheme         WeightScheme... mBecke (2022)
Basis function cutoff            BFCut       ... 1.0000e-11
Integration weight cutoff        WCut        ... 1.0000e-14
Partially contracted basis set               ... on
Rotationally invariant grid construction     ... off
Angular grids for H and He will be reduced by one unit

Total number of grid points                  ...    31882
Total number of batches                      ...      278
Average number of points per batch           ...      114
Average number of grid points per atom       ...      613
UseSFitting                                  ... on

GRIDX 2
-------
General Integration Accuracy     IntAcc      ... 4.020
Radial Grid Type                 RadialGrid  ... OptM3 with GC (2021)
Angular Grid (max. ang.)         AngularGrid ... 2 (Lebedev-110)
Angular grid pruning method      GridPruning ... 4 (adaptive)
Weight generation scheme         WeightScheme... mBecke (2022)
Basis function cutoff            BFCut       ... 1.0000e-11
Integration weight cutoff        WCut        ... 1.0000e-14
Partially contracted basis set               ... on
Rotationally invariant grid construction     ... off
Angular grids for H and He will be reduced by one unit

Total number of grid points                  ...    66137
Total number of batches                      ...      544
Average number of points per batch           ...      121
Average number of grid points per atom       ...     1272
UseSFitting                                  ... on

GRIDX 3
-------
General Integration Accuracy     IntAcc      ... 4.338
Radial Grid Type                 RadialGrid  ... OptM3 with GC (2021)
Angular Grid (max. ang.)         AngularGrid ... 3 (Lebedev-194)
Angular grid pruning method      GridPruning ... 4 (adaptive)
Weight generation scheme         WeightScheme... mBecke (2022)
Basis function cutoff            BFCut       ... 1.0000e-11
Integration weight cutoff        WCut        ... 1.0000e-14
Partially contracted basis set               ... on
Rotationally invariant grid construction     ... off
Angular grids for H and He will be reduced by one unit

Total number of grid points                  ...   144426
Total number of batches                      ...     1154
Average number of points per batch           ...      125
Average number of grid points per atom       ...     2777
UseSFitting                                  ... on
Initializing property integral containers    ... done (  0.0 sec)

SHARK setup successfully completed in   7.7 seconds

Maximum memory used throughout the entire STARTUP-calculation: 131.0 MB
-------------------------------------------------------------------------------
                                 ORCA GUESS
                   Start orbitals & Density for SCF / CASSCF
-------------------------------------------------------------------------------

------------
SCF SETTINGS
------------
Hamiltonian:
 Density Functional     Method          .... DFT(GTOs)
 Exchange Functional    Exchange        .... B88
   X-Alpha parameter    XAlpha          ....  0.666667
   Becke's b parameter  XBeta           ....  0.004200
 Correlation Functional Correlation     .... LYP
 LDA part of GGA corr.  LDAOpt          .... VWN-3
 Gradients option       PostSCFGGA      .... off
 Hybrid DFT is turned on
   Fraction HF Exchange ScalHFX         ....  0.200000
   Scaling of DF-GGA-X  ScalDFX         ....  0.720000
   Scaling of DF-GGA-C  ScalDFC         ....  0.810000
   Scaling of DF-LDA-C  ScalLDAC        ....  1.000000
   Perturbative correction              ....  0.000000
   NL short-range parameter             ....  4.800000
 RI-approximation to the Coulomb term is turned on
   Number of AuxJ basis functions       .... 1638
   RIJ-COSX (HFX calculated with COS-X)).... on


General Settings:
 Integral files         IntName         .... 1globalminimum
 Hartree-Fock type      HFTyp           .... RHF
 Total Charge           Charge          ....    1
 Multiplicity           Mult            ....    1
 Number of Electrons    NEL             ....  212
 Basis Dimension        Dim             ....  584
 Nuclear Repulsion      ENuc            ....   3224.9996390157 Eh

Convergence Acceleration:
 AO-DIIS                CNVDIIS         .... on
   Start iteration      DIISMaxIt       ....    12
   Startup error        DIISStart       ....  0.200000
   # of expansion vecs  DIISMaxEq       ....     5
   Bias factor          DIISBfac        ....   1.050
   Max. coefficient     DIISMaxC        ....  10.000
 MO-DIIS                CNVKDIIS        .... off
 Trust-Rad. Augm. Hess. CNVTRAH         .... auto
   Auto Start mean grad. ratio tolernc. ....  1.125000
   Auto Start start iteration           ....    50
   Auto Start num. interpolation iter.  ....    10
   Max. Number of Micro iterations      ....    24
   Max. Number of Macro iterations      .... Maxiter - #DIIS iter
   Number of Davidson start vectors     ....     2
   Converg. threshold    (grad. norm)   ....   1.000e-05
   Grad. Scal. Fac. for Micro threshold ....   0.100
   Minimum threshold for Micro iter.    ....   1.000e-02
   NR start threshold (gradient norm)   ....   1.000e-04
   Initial trust radius                 ....   0.400
   Minimum AH scaling param. (alpha)    ....   1.000
   Maximum AH scaling param. (alpha)    .... 1000.000
   Quad. conv. algorithm                .... NR
   White noise on init. David. guess    .... on
   Maximum white noise                  ....   0.010
   Pseudo random numbers                .... off
   Inactive MOs                         .... canonical
   Orbital update algorithm             .... Taylor
   Preconditioner                       .... Diag
   Full preconditioner red. dimension   ....   250
 SOSCF                  CNVSOSCF        .... on
   Start iteration      SOSCFMaxIt      ....   150
   Startup grad/error   SOSCFStart      ....  0.003300
   Hessian update       SOSCFHessUp     .... L-BFGS
 Level Shifting         CNVShift        .... on
   Level shift para.    LevelShift      ....    0.2500
   Turn off err/grad.   ShiftErr        ....    0.0010
 Zerner damping         CNVZerner       .... off
 Static damping         CNVDamp         .... on
   Fraction old density DampFac         ....    0.7000
   Max. Damping (<1)    DampMax         ....    0.9800
   Min. Damping (>=0)   DampMin         ....    0.0000
   Turn off err/grad.   DampErr         ....    0.1000

SCF Procedure:
 Maximum # iterations   MaxIter         ....   125
 SCF integral mode      SCFMode         .... Direct
   Integral package                     .... SHARK and LIBINT hybrid scheme
 Reset frequency        DirectResetFreq ....    20
 Integral Threshold     Thresh          ....  2.500e-11 Eh
 Primitive CutOff       TCut            ....  2.500e-12 Eh

Convergence Tolerance:
 Convergence Check Mode ConvCheckMode   .... Total+1el-Energy
 Convergence forced     ConvForced      .... 0
 Energy Change          TolE            ....  1.000e-08 Eh
 1-El. energy change                    ....  1.000e-05 Eh
 Orbital Gradient       TolG            ....  1.000e-05
 Orbital Rotation angle TolX            ....  1.000e-05
 DIIS Error             TolErr          ....  5.000e-07

------------------------------
INITIAL GUESS: MODEL POTENTIAL
------------------------------
Loading Hartree-Fock densities                     ... done
Calculating cut-offs                               ... done
Initializing the effective Hamiltonian             ... done
Setting up the integral package (SHARK)            ... done
Starting the Coulomb interaction                   ... done (   1.4 sec)
Making the grid                                    ... done (   0.7 sec)
Mapping shells                                     ... done
Starting the XC term evaluation                    ... done (   0.6 sec)
  promolecular density results
     # of electrons  =    212.994796792
     EX              =   -187.063645383
     EC              =     -7.428614798
     EX+EC           =   -194.492260181
Transforming the Hamiltonian                       ... done (   0.0 sec)
Diagonalizing the Hamiltonian                      ... done (   0.0 sec)
Back transforming the eigenvectors                 ... done (   0.0 sec)
Now organizing SCF variables                       ... done
                      ------------------
                      INITIAL GUESS DONE (   2.8 sec)
                      ------------------
             **** ENERGY FILE WAS UPDATED (1globalminimum.en.tmp) ****
Finished Guess after   3.1 sec
Maximum memory used throughout the entire GUESS-calculation: 82.3 MB

-------------------------------------------------------------------------------------------
                                      ORCA LEAN-SCF
                              memory conserving SCF solver
-------------------------------------------------------------------------------------------

--------------------
CPCM SOLVATION MODEL
--------------------
CPCM parameters:
  Epsilon                                         ...      80.1510
  Refrac                                          ...       1.3328
  Rsolv                                           ...       1.3000
  Surface type                                    ... GAUSSIAN VDW
  Discretization scheme                           ... Constant charge density
    Threshold for H atoms                         ...       5.0000 (charges/Ang^2)
    Threshold for non-H atoms                     ...       5.0000 (charges/Ang^2)
  Epsilon function type                           ...         CPCM
Solvent:                                          ... WATER
Radii:
  Scheme                                          ... Element-dependent radii
  Radius for C  used is    3.8550 Bohr (=   2.0400 Ang.)
  Radius for O  used is    3.4469 Bohr (=   1.8240 Ang.)
  Radius for N  used is    3.5149 Bohr (=   1.8600 Ang.)
  Radius for H  used is    2.4944 Bohr (=   1.3200 Ang.)
  Radius for P  used is    4.0818 Bohr (=   2.1600 Ang.)
Calculating surface                               ...        done! (  0.0s)
Cavity surface points                             ...         4207
Cavity Volume                                     ...    3027.9326
Cavity Surface-area                               ...    1437.7114
Calculating surface distance matrix               ...        done! (  0.1s)
Performing Cholesky decomposition & store         ...        done! (  1.9s)
Overall time for CPCM initialization              ...                 2.0s

----------------------------------------D-I-I-S--------------------------------------------
Iteration    Energy (Eh)           Delta-E    RMSDP     MaxDP     DIISErr   Damp  Time(sec)
-------------------------------------------------------------------------------------------
               ***  Starting incremental Fock matrix formation  ***
    1    -1602.9698302128585965     0.00e+00  1.74e-03  1.19e-01  4.11e-01  0.700  37.3
    2    -1603.3638562501250817    -3.94e-01  1.07e-03  5.36e-02  1.39e-01  0.700  19.3
                               ***Turning on AO-DIIS***
    3    -1603.5081094215524899    -1.44e-01  3.90e-04  1.45e-02  4.70e-02  0.700  18.3
    4    -1603.5991384356816525    -9.10e-02  6.70e-04  2.65e-02  2.20e-02  0.000  17.0
    5    -1603.8014833178308436    -2.02e-01  1.47e-04  6.55e-03  6.58e-03  0.000  17.6
                              *** Initializing SOSCF ***
---------------------------------------S-O-S-C-F--------------------------------------
Iteration    Energy (Eh)           Delta-E    RMSDP     MaxDP     MaxGrad    Time(sec)
--------------------------------------------------------------------------------------
    6    -1603.8024718836209104    -9.89e-04  4.47e-05  1.34e-03  2.03e-03    16.0
               *** Restarting incremental Fock matrix formation ***
    7    -1603.8024916987938013    -1.98e-05  3.54e-05  1.41e-03  4.13e-04    36.4
    8    -1603.8024721273618525     1.96e-05  2.03e-05  8.75e-04  8.72e-04    22.8
    9    -1603.8025072740570067    -3.51e-05  2.70e-06  1.01e-04  2.59e-05    20.9
   10    -1603.8025072123450627     6.17e-08  1.29e-06  7.48e-05  3.49e-05    16.8
   11    -1603.8025073921921830    -1.80e-07  8.87e-07  3.38e-05  1.04e-05    14.1
   12    -1603.8025073537405660     3.85e-08  4.48e-07  1.95e-05  9.32e-06    13.9
   13    -1603.8025073702406189    -1.65e-08  1.53e-07  4.98e-06  1.16e-06    11.9
                  *** Gradient check signals convergence ***

               *****************************************************
               *                     SUCCESS                       *
               *           SCF CONVERGED AFTER  13 CYCLES          *
               *****************************************************

Recomputing exchange energy using gridx3       ... done (   57.051 sec)
Old exchange energy                            :    -37.912287410 Eh
New exchange energy                            :    -37.912288092 Eh
Exchange energy change after final integration :     -0.000000682 Eh
Total energy after final integration           :  -1603.802508053 Eh
             **** ENERGY FILE WAS UPDATED (1globalminimum.en.tmp) ****

----------------
TOTAL SCF ENERGY
----------------

Total Energy       :      -1603.80250805252263 Eh          -43641.68494 eV

Components:
Nuclear Repulsion  :       3224.99963901567253 Eh           87756.70164 eV
Electronic Energy  :      -4828.71646598991447 Eh         -131396.05509 eV
One Electron Energy:      -8582.79331672344415 Eh         -233549.67958 eV
Two Electron Energy:       3754.07685073352968 Eh          102153.62450 eV
CPCM Dielectric    :         -0.08568039599835 Eh              -2.33148 eV

Virial components:
Potential Energy   :      -3203.23149370287365 Eh          -87164.36029 eV
Kinetic Energy     :       1599.42898565035102 Eh           43522.67535 eV
Virial Ratio       :          2.00273442737465

DFT components:
N(Alpha)           :      106.000044643976 electrons
N(Beta)            :      106.000044643976 electrons
N(Total)           :      212.000089287952 electrons
E(X)               :     -150.673426594671 Eh       
E(C)               :       -9.482304287010 Eh       
E(XC)              :     -160.155730881681 Eh       

CPCM Solvation Model Properties:
Surface-charge          :         -1.02902850319114
Corrected charge        :         -1.00000000000000
Outlying charge corr.   :          0.00004264984013 Eh               0.00116 eV
Free-energy (cav+disp)  :  This term is not implemented in the current solvation scheme

---------------
SCF CONVERGENCE
---------------

  Last Energy change         ...    1.6500e-08  Tolerance :   1.0000e-08
  Last MAX-Density change    ...    4.9837e-06  Tolerance :   1.0000e-07
  Last RMS-Density change    ...    1.5292e-07  Tolerance :   5.0000e-09
  Last DIIS Error            ...    2.0330e-03  Tolerance :   5.0000e-07
  Last Orbital Gradient      ...    1.1611e-06  Tolerance :   1.0000e-05
  Last Orbital Rotation      ...    5.7562e-06  Tolerance :   1.0000e-05


----------------
ORBITAL ENERGIES
----------------

  NO   OCC          E(Eh)            E(eV) 
   0   2.0000     -77.225572     -2101.4147 
   1   2.0000     -19.196080      -522.3519 
   2   2.0000     -19.182264      -521.9759 
   3   2.0000     -19.174166      -521.7556 
   4   2.0000     -19.118446      -520.2394 
   5   2.0000     -19.102332      -519.8009 
   6   2.0000     -14.432153      -392.7188 
   7   2.0000     -14.356816      -390.6688 
   8   2.0000     -10.333187      -281.1803 
   9   2.0000     -10.278322      -279.6874 
  10   2.0000     -10.271929      -279.5134 
  11   2.0000     -10.271148      -279.4921 
  12   2.0000     -10.241960      -278.6979 
  13   2.0000     -10.236710      -278.5550 
  14   2.0000     -10.234418      -278.4927 
  15   2.0000     -10.231159      -278.4040 
  16   2.0000     -10.220237      -278.1068 
  17   2.0000     -10.218520      -278.0601 
  18   2.0000     -10.215442      -277.9763 
  19   2.0000     -10.201407      -277.5944 
  20   2.0000     -10.200694      -277.5750 
  21   2.0000     -10.197529      -277.4889 
  22   2.0000     -10.197397      -277.4853 
  23   2.0000     -10.195857      -277.4434 
  24   2.0000     -10.189596      -277.2730 
  25   2.0000     -10.188204      -277.2351 
  26   2.0000     -10.165717      -276.6232 
  27   2.0000     -10.165620      -276.6206 
  28   2.0000      -6.707852      -182.5299 
  29   2.0000      -4.870061      -132.5211 
  30   2.0000      -4.869847      -132.5153 
  31   2.0000      -4.868321      -132.4738 
  32   2.0000      -1.145829       -31.1796 
  33   2.0000      -1.129639       -30.7390 
  34   2.0000      -1.074639       -29.2424 
  35   2.0000      -1.051671       -28.6174 
  36   2.0000      -1.041013       -28.3274 
  37   2.0000      -1.014296       -27.6004 
  38   2.0000      -0.963243       -26.2112 
  39   2.0000      -0.913603       -24.8604 
  40   2.0000      -0.877577       -23.8801 
  41   2.0000      -0.849501       -23.1161 
  42   2.0000      -0.821054       -22.3420 
  43   2.0000      -0.791136       -21.5279 
  44   2.0000      -0.783771       -21.3275 
  45   2.0000      -0.774781       -21.0828 
  46   2.0000      -0.770678       -20.9712 
  47   2.0000      -0.733458       -19.9584 
  48   2.0000      -0.725640       -19.7457 
  49   2.0000      -0.710604       -19.3365 
  50   2.0000      -0.696606       -18.9556 
  51   2.0000      -0.684741       -18.6327 
  52   2.0000      -0.668694       -18.1961 
  53   2.0000      -0.657605       -17.8943 
  54   2.0000      -0.650475       -17.7003 
  55   2.0000      -0.613468       -16.6933 
  56   2.0000      -0.603978       -16.4351 
  57   2.0000      -0.569228       -15.4895 
  58   2.0000      -0.563227       -15.3262 
  59   2.0000      -0.559143       -15.2151 
  60   2.0000      -0.553586       -15.0638 
  61   2.0000      -0.545662       -14.8482 
  62   2.0000      -0.541113       -14.7244 
  63   2.0000      -0.520319       -14.1586 
  64   2.0000      -0.516507       -14.0549 
  65   2.0000      -0.509221       -13.8566 
  66   2.0000      -0.500481       -13.6188 
  67   2.0000      -0.499844       -13.6014 
  68   2.0000      -0.492892       -13.4123 
  69   2.0000      -0.488946       -13.3049 
  70   2.0000      -0.482581       -13.1317 
  71   2.0000      -0.477080       -12.9820 
  72   2.0000      -0.468458       -12.7474 
  73   2.0000      -0.462477       -12.5846 
  74   2.0000      -0.456763       -12.4292 
[...]
133:   3041.85   0.018695   94.48  0.001918  (-0.013853 -0.017234  0.037802)
134:   3042.20   0.002755   13.92  0.000283  (-0.015045  0.004134 -0.006257)
135:   3044.21   0.001991   10.06  0.000204  (-0.012298  0.005655  0.004568)
136:   3095.00   0.017616   89.02  0.001776  (-0.011221 -0.036123 -0.018586)
137:   3097.12   0.001344    6.79  0.000135  ( 0.008184 -0.007999 -0.002114)
138:   3097.26   0.000011    0.05  0.000001  (-0.000118 -0.000585 -0.000856)
139:   3101.10   0.001002    5.07  0.000101  (-0.009107 -0.004121  0.000976)
140:   3108.60   0.009866   49.86  0.000990  ( 0.001017  0.013818 -0.028257)
141:   3109.53   0.009801   49.53  0.000984  (-0.005386  0.028468  0.012007)
142:   3113.03   0.006532   33.01  0.000655  ( 0.016358  0.000319 -0.019674)
143:   3120.88   0.006031   30.48  0.000603  ( 0.011986  0.021344 -0.001965)
144:   3157.96   0.005824   29.43  0.000575  ( 0.008118  0.020599 -0.009234)
145:   3165.98   0.005747   29.04  0.000566  ( 0.008392  0.010577  0.019599)
146:   3178.96   0.001352    6.83  0.000133  (-0.010205  0.001178  0.005213)
147:   3186.86   0.000562    2.84  0.000055  ( 0.007313  0.001078  0.000612)
148:   3191.41   0.000372    1.88  0.000036  (-0.004227  0.000980 -0.004192)
149:   3192.40   0.002072   10.47  0.000203  (-0.008768  0.006551 -0.009097)
150:   3201.22   0.005061   25.58  0.000493  ( 0.013021  0.013820 -0.011526)
151:   3202.77   0.000431    2.18  0.000042  ( 0.004687  0.002969 -0.003351)
152:   3206.63   0.002967   15.00  0.000289  ( 0.006671 -0.010901  0.011200)
153:   3232.84   0.000232    1.17  0.000022  (-0.000444  0.004045 -0.002412)
154:   3245.19   0.000018    0.09  0.000002  ( 0.000585 -0.000448 -0.001111)
155:   3251.49   0.001599    8.08  0.000153  ( 0.000980  0.011103 -0.005403)

* The epsilon (eps) is given for a Dirac delta lineshape.
** The dipole moment derivative (T) already includes vibrational overlap.

The first frequency considered to be a vibration is 6
The total number of vibrations considered is 150


--------------------------
THERMOCHEMISTRY AT 298.15K
--------------------------

Temperature         ...   298.15 K
Pressure            ...     1.00 atm
Total Mass          ...   403.39 AMU
Quasi RRHO          ...     True
Cut-Off Frequency   ...     1.00 cm^-1

Throughout the following assumptions are being made:
  (1) The electronic state is orbitally nondegenerate
  (2) There are no thermally accessible electronically excited states
  (3) Hindered rotations indicated by low frequency modes are not
      treated as such but are treated as vibrations and this may
      cause some error
  (4) All equations used are the standard statistical mechanics
      equations for an ideal gas
  (5) All vibrations are strictly harmonic

freq.      28.81  E(vib)   ...       0.55 
freq.      29.13  E(vib)   ...       0.55 
freq.      33.91  E(vib)   ...       0.55 
freq.      36.47  E(vib)   ...       0.54 
freq.      44.09  E(vib)   ...       0.53 
freq.      48.33  E(vib)   ...       0.53 
freq.      56.24  E(vib)   ...       0.52 
freq.      59.26  E(vib)   ...       0.51 
freq.      74.93  E(vib)   ...       0.49 
freq.      79.06  E(vib)   ...       0.49 
freq.      85.90  E(vib)   ...       0.48 
freq.     100.51  E(vib)   ...       0.46 
freq.     115.59  E(vib)   ...       0.44 
freq.     117.77  E(vib)   ...       0.44 
freq.     136.65  E(vib)   ...       0.42 
freq.     154.03  E(vib)   ...       0.40 
freq.     174.82  E(vib)   ...       0.38 
freq.     187.00  E(vib)   ...       0.36 
freq.     206.33  E(vib)   ...       0.35 
freq.     213.45  E(vib)   ...       0.34 
freq.     227.60  E(vib)   ...       0.33 
freq.     248.42  E(vib)   ...       0.31 
freq.     249.21  E(vib)   ...       0.31 
freq.     255.97  E(vib)   ...       0.30 
freq.     267.07  E(vib)   ...       0.29 
freq.     274.81  E(vib)   ...       0.28 
freq.     303.66  E(vib)   ...       0.26 
freq.     326.09  E(vib)   ...       0.24 
freq.     354.04  E(vib)   ...       0.22 
freq.     375.25  E(vib)   ...       0.21 
freq.     395.70  E(vib)   ...       0.20 
freq.     397.77  E(vib)   ...       0.20 
freq.     423.73  E(vib)   ...       0.18 
freq.     431.13  E(vib)   ...       0.18 
freq.     440.52  E(vib)   ...       0.17 
freq.     474.55  E(vib)   ...       0.15 
freq.     480.25  E(vib)   ...       0.15 
freq.     486.05  E(vib)   ...       0.15 
freq.     506.34  E(vib)   ...       0.14 
freq.     519.30  E(vib)   ...       0.13 
freq.     529.10  E(vib)   ...       0.13 
freq.     542.62  E(vib)   ...       0.12 
freq.     560.97  E(vib)   ...       0.11 
freq.     585.22  E(vib)   ...       0.11 
freq.     624.60  E(vib)   ...       0.09 
freq.     628.06  E(vib)   ...       0.09 
freq.     662.13  E(vib)   ...       0.08 
freq.     703.62  E(vib)   ...       0.07 
freq.     715.41  E(vib)   ...       0.07 
freq.     722.27  E(vib)   ...       0.07 
freq.     743.64  E(vib)   ...       0.06 
freq.     759.29  E(vib)   ...       0.06 
freq.     774.35  E(vib)   ...       0.05 
freq.     779.63  E(vib)   ...       0.05 
freq.     783.01  E(vib)   ...       0.05 
freq.     812.04  E(vib)   ...       0.05 
freq.     813.99  E(vib)   ...       0.05 
freq.     816.66  E(vib)   ...       0.05 
freq.     824.02  E(vib)   ...       0.05 
freq.     839.68  E(vib)   ...       0.04 
freq.     849.67  E(vib)   ...       0.04 
freq.     902.24  E(vib)   ...       0.03 
freq.     907.40  E(vib)   ...       0.03 
freq.     939.66  E(vib)   ...       0.03 
freq.     959.22  E(vib)   ...       0.03 
freq.     961.25  E(vib)   ...       0.03 
freq.     980.97  E(vib)   ...       0.02 
freq.     987.20  E(vib)   ...       0.02 
freq.     995.99  E(vib)   ...       0.02 
freq.    1003.48  E(vib)   ...       0.02 
freq.    1014.95  E(vib)   ...       0.02 
freq.    1020.88  E(vib)   ...       0.02 
freq.    1033.03  E(vib)   ...       0.02 
freq.    1062.09  E(vib)   ...       0.02 
freq.    1082.17  E(vib)   ...       0.02 
freq.    1112.66  E(vib)   ...       0.01 
freq.    1113.64  E(vib)   ...       0.01 
freq.    1114.25  E(vib)   ...       0.01 
freq.    1131.20  E(vib)   ...       0.01 
freq.    1132.60  E(vib)   ...       0.01 
freq.    1138.39  E(vib)   ...       0.01 
freq.    1153.67  E(vib)   ...       0.01 
freq.    1180.44  E(vib)   ...       0.01 
freq.    1181.52  E(vib)   ...       0.01 
freq.    1183.44  E(vib)   ...       0.01 
freq.    1186.63  E(vib)   ...       0.01 
freq.    1200.82  E(vib)   ...       0.01 
freq.    1215.07  E(vib)   ...       0.01 
freq.    1238.48  E(vib)   ...       0.01 
freq.    1258.87  E(vib)   ...       0.01 
freq.    1274.17  E(vib)   ...       0.01 
freq.    1284.31  E(vib)   ...       0.01 
freq.    1289.03  E(vib)   ...       0.01 
freq.    1300.18  E(vib)   ...       0.01 
freq.    1320.45  E(vib)   ...       0.01 
freq.    1323.98  E(vib)   ...       0.01 
freq.    1347.14  E(vib)   ...       0.01 
freq.    1358.74  E(vib)   ...       0.01 
freq.    1407.02  E(vib)   ...       0.00 
freq.    1410.16  E(vib)   ...       0.00 
freq.    1414.07  E(vib)   ...       0.00 
freq.    1420.03  E(vib)   ...       0.00 
freq.    1422.01  E(vib)   ...       0.00 
freq.    1423.06  E(vib)   ...       0.00 
freq.    1449.09  E(vib)   ...       0.00 
freq.    1455.45  E(vib)   ...       0.00 
freq.    1458.95  E(vib)   ...       0.00 
freq.    1472.12  E(vib)   ...       0.00 
freq.    1477.95  E(vib)   ...       0.00 
freq.    1485.16  E(vib)   ...       0.00 
freq.    1488.22  E(vib)   ...       0.00 
freq.    1491.80  E(vib)   ...       0.00 
freq.    1492.08  E(vib)   ...       0.00 
freq.    1492.18  E(vib)   ...       0.00 
freq.    1501.83  E(vib)   ...       0.00 
freq.    1502.60  E(vib)   ...       0.00 
freq.    1515.21  E(vib)   ...       0.00 
freq.    1517.89  E(vib)   ...       0.00 
freq.    1527.12  E(vib)   ...       0.00 
freq.    1534.91  E(vib)   ...       0.00 
freq.    1555.01  E(vib)   ...       0.00 
freq.    1598.95  E(vib)   ...       0.00 
freq.    1619.26  E(vib)   ...       0.00 
freq.    1640.79  E(vib)   ...       0.00 
freq.    1658.93  E(vib)   ...       0.00 
freq.    1758.13  E(vib)   ...       0.00 
freq.    3036.53  E(vib)   ...       0.00 
freq.    3041.85  E(vib)   ...       0.00 
freq.    3042.20  E(vib)   ...       0.00 
freq.    3044.21  E(vib)   ...       0.00 
freq.    3095.00  E(vib)   ...       0.00 
freq.    3097.12  E(vib)   ...       0.00 
freq.    3097.26  E(vib)   ...       0.00 
freq.    3101.10  E(vib)   ...       0.00 
freq.    3108.60  E(vib)   ...       0.00 
freq.    3109.53  E(vib)   ...       0.00 
freq.    3113.03  E(vib)   ...       0.00 
freq.    3120.88  E(vib)   ...       0.00 
freq.    3157.96  E(vib)   ...       0.00 
freq.    3165.98  E(vib)   ...       0.00 
freq.    3178.96  E(vib)   ...       0.00 
freq.    3186.86  E(vib)   ...       0.00 
freq.    3191.41  E(vib)   ...       0.00 
freq.    3192.40  E(vib)   ...       0.00 
freq.    3201.22  E(vib)   ...       0.00 
freq.    3202.77  E(vib)   ...       0.00 
freq.    3206.63  E(vib)   ...       0.00 
freq.    3232.84  E(vib)   ...       0.00 
freq.    3245.19  E(vib)   ...       0.00 
freq.    3251.49  E(vib)   ...       0.00 

------------
INNER ENERGY
------------

The inner energy is: U= E(el) + E(ZPE) + E(vib) + E(rot) + E(trans)
    E(el)   - is the total energy from the electronic structure calculation
              = E(kin-el) + E(nuc-el) + E(el-el) + E(nuc-nuc)
    E(ZPE)  - the the zero temperature vibrational energy from the frequency calculation
    E(vib)  - the the finite temperature correction to E(ZPE) due to population
              of excited vibrational states
    E(rot)  - is the rotational thermal energy
    E(trans)- is the translational thermal energy

Summary of contributions to the inner energy U:
Electronic energy                ...  -1603.81807758 Eh
Zero point energy                ...      0.41916218 Eh     263.03 kcal/mol
Thermal vibrational correction   ...      0.02527259 Eh      15.86 kcal/mol
Thermal rotational correction    ...      0.00141627 Eh       0.89 kcal/mol
Thermal translational correction ...      0.00141627 Eh       0.89 kcal/mol
-----------------------------------------------------------------------
Total thermal energy                  -1603.37081027 Eh


Summary of corrections to the electronic energy:
(perhaps to be used in another calculation)
Total thermal correction                  0.02810513 Eh      17.64 kcal/mol
Non-thermal (ZPE) correction              0.41916218 Eh     263.03 kcal/mol
-----------------------------------------------------------------------
Total correction                          0.44726732 Eh     280.66 kcal/mol


--------
ENTHALPY
--------

The enthalpy is H = U + kB*T
                kB is Boltzmann's constant
Total thermal energy              ...  -1603.37081027 Eh 
Thermal Enthalpy correction       ...      0.00094421 Eh       0.59 kcal/mol
-----------------------------------------------------------------------
Total Enthalpy                    ...  -1603.36986606 Eh


Note: Only C1 symmetry has been detected, increase convergence thresholds 
      if your molecule has a higher symmetry. Symmetry factor of 1.0 is   
      used for the rotational entropy correction. 
 

Note: Rotational entropy computed according to Herzberg 
Infrared and Raman Spectra, Chapter V,1, Van Nostrand Reinhold, 1945 
Point Group:  C1, Symmetry Number:   1  
Rotational constants in cm-1:     0.007049     0.006083     0.004369 

Vibrational entropy computed according to the QRRHO of S. Grimme
Chem.Eur.J. 2012 18 9955 using a reference frequency of 100.0 cm-1


-------
ENTROPY
-------

The entropy contributions are T*S = T*(S(el)+S(vib)+S(rot)+S(trans))
     S(el)   - electronic entropy
     S(vib)  - vibrational entropy
     S(rot)  - rotational entropy
     S(trans)- translational entropy
The entropies will be listed as multiplied by the temperature to get
units of energy

Electronic entropy                ...      0.00000000 Eh      0.00 kcal/mol
Vibrational entropy               ...      0.04553742 Eh     28.58 kcal/mol
Rotational entropy                ...      0.01682365 Eh     10.56 kcal/mol
Translational entropy             ...      0.02084658 Eh     13.08 kcal/mol
-----------------------------------------------------------------------
Final entropy term                ...      0.08320765 Eh     52.21 kcal/mol

In case the symmetry of your molecule has not been determined correctly
or in case you have a reason to use a different symmetry number we print 
out the resulting rotational entropy values for sn=1,12:

 non-linear molecules -----------------------------------
|  sn= 1 | S(rot)=       0.01682365 Eh     10.56 kcal/mol|
|  sn= 2 | S(rot)=       0.01616919 Eh     10.15 kcal/mol|
|  sn= 3 | S(rot)=       0.01578636 Eh      9.91 kcal/mol|
|  sn= 4 | S(rot)=       0.01551473 Eh      9.74 kcal/mol|
|  sn= 5 | S(rot)=       0.01530405 Eh      9.60 kcal/mol|
|  sn= 6 | S(rot)=       0.01513190 Eh      9.50 kcal/mol|
|  sn= 7 | S(rot)=       0.01498635 Eh      9.40 kcal/mol|
|  sn= 8 | S(rot)=       0.01486028 Eh      9.32 kcal/mol|
|  sn= 9 | S(rot)=       0.01474907 Eh      9.26 kcal/mol|
|  sn=10 | S(rot)=       0.01464959 Eh      9.19 kcal/mol|
|  sn=11 | S(rot)=       0.01455960 Eh      9.14 kcal/mol|
|  sn=12 | S(rot)=       0.01447744 Eh      9.08 kcal/mol|
 linear molecules ---------------------------------------
|  Dinfh | S(rot)=       0.01045580 Eh      6.56 kcal/mol|
|  Cinfv | S(rot)=       0.01111025 Eh      6.97 kcal/mol|
 --------------------------------------------------------


-------------------
GIBBS FREE ENERGY
-------------------

The Gibbs free energy is G = H - T*S

Total enthalpy                    ...  -1603.36986606 Eh 
Total entropy correction          ...     -0.08320765 Eh    -52.21 kcal/mol
-----------------------------------------------------------------------
Final Gibbs free energy         ...  -1603.45307371 Eh

For completeness - the Gibbs free energy minus the electronic energy
G-E(el)                           ...      0.36500387 Eh    229.04 kcal/mol


Maximum memory used throughout the entire PROP-calculation: 481.0 MB

--------------------------------
SUGGESTED CITATIONS FOR THIS RUN
--------------------------------

Below you find a list of papers that are relevant to this ORCA run
We neither can nor want to force you to cite these papers, but we appreciate if you do
You receive ORCA, which is the product of decades of hard work by many enthusiastic individuals, for free
The only thing we kindly ask in return is that you cite our papers,
We deeply appreciate it, if you show your appreciation for ORCA by not just citing the generic ORCA reference.

Please note that relegating all ORCA citations to the supporting information does *not* help us.
SI sections are not indexed - citations you put there will not count into any citation statistics
But we need these citations in order to attract the funding resources that allow us to do what we are doing

Therefore, if you are a happy ORCA user, please consider citing a few of the papers listed below in the main body of your paper

In addition to the list printed below, the program has created the file 1globalminimum.bibtex that contains the list in bibtex format
You can import this file easily into all common literature databanks and citation aid programs


List of essential papers. We consider these as the minimum necessary citations

  1. Neese,F.
     Software update: the ORCA program system, version 5.0
     WIRES Comput. Molec. Sci., 2022 12(1)e1606
     doi.org/10.1002/wcms.1606

List of papers to cite with high priority. The work reported in these papers was absolutely
necessary for this run to complete.
Our perspective: the developers of density functionals and basis sets usually get cited in chemistry papers
Good! But without the algorithms to do something with them, the functionals or basis sets would not do anything.
Hence, in our opinion, the algorithm design and method developments papers are equally worthy of getting cited

  1. Neese,F.
     An improvement of the resolution of the identity approximation for the formation of the Coulomb matrix
     J. Comp. Chem., 2003 24(14)1740-1747
     doi.org/10.1002/jcc.10318
  2. Neese,F.; Wennmohs,F.; Hansen,A.; Becker,U.
     Efficient, approximate and parallel Hartree-Fock and hybrid DFT calculations. A 'chain-of-spheres' algorithm for the Hartree-Fock exchange
     Chem. Phys., 2009 356(1-3)98-109
     doi.org/10.1016/j.chemphys.2008.10.036
  3. Bykov,D.; Petrenko,T.; Izsak,R.; Kossmann,S.; Becker,U.; Valeev,E.; Neese,F.
     Efficient implementation of the analytic second derivatives of Hartree-Fock and hybrid DFT energies: a detailed analysis of different approximations
     Molec. Phys., 2015 113 1961-1977
     doi.org/10.1080/00268976.2015.1025114
  4. Garcia-Rates,M.; Neese,F.
     Efficient implementation of the analytical second derivatives of hartree-fock and hybrid DFT energies within the framework of the conductor-like polarizable continuum model
     J. Comput. Chem., 2019 40 1816-1828
     doi.org/10.1002/jcc.25833
  5. Garcia-Rates,M.; Neese,F.
     Effect of the Solute Cavity on the Solvation Energy and its Derivatives within the Framework of the Gaussian Charge Scheme
     J. Comput. Chem., 2020 41 922-939
     doi.org/10.1002/jcc.26139
  6. Helmich-Paris,B.; de Souza,B.; Neese,F.; Izsák,R.
     An improved chain of spheres for exchange algorithm
     J. Chem. Phys., 2021 155 104109
     doi.org/doi: 10.1063/5.0058766.
  7. Neese,F.
     The SHARK Integral Generation and Digestion System
     J. Comp. Chem., 2022  1-16
     doi.org/10.1002/jcc.26942

List of suggested additional citations. These are papers that are important in the 'surrounding' of 
of this run, or papers that preceded the highly important papers. If you like your results we are grateful for a citation.

  1. Izsak,R.; Neese,F.
     An overlap fitted chain of spheres exchange method
     J. Chem. Phys., 2011 135 144105
     doi.org/10.1063/1.3646921
  2. Izsak,R.; Hansen,A.; Neese,F.
     The resolution of identity and chain of spheres approximations for the LPNO-CCSD singles Fock term
     Molec. Phys., 2012 110 2413-2417
     doi.org/10.1080/00268976.2012.687466
  3. Neese,F.
     The ORCA program system
     WIRES Comput. Molec. Sci., 2012 2(1)73-78
     doi.org/10.1002/wcms.81
  4. Izsak,R.; Neese,F.; Klopper,W.
     Robust fitting techniques in the chain of spheres approximation to the Fock exchange: The role of the complementary space
     J. Chem. Phys., 2013 139 
     doi.org/10.1063/1.4819264
  5. Neese,F.
     Software update: the ORCA program system, version 4.0
     WIRES Comput. Molec. Sci., 2018 8(1)1-6
     doi.org/10.1002/wcms.1327
  6. Neese,F.; Wennmohs,F.; Becker,U.; Riplinger,C.
     The ORCA quantum chemistry program package
     J. Chem. Phys., 2020 152 Art. No. L224108
     doi.org/10.1063/5.0004608

List of optional additional citations

  1. Neese,F.
     Approximate second-order SCF convergence for spin unrestricted wavefunctions
     Chem. Phys. Lett., 2000 325(1-3)93-98
     doi.org/10.1016/s0009-2614(00)00662-x

Timings for individual modules:

Sum of individual times          ...    14697.679 sec (= 244.961 min)
Startup calculation              ...      166.908 sec (=   2.782 min)   1.1 %
SCF iterations                   ...     4962.376 sec (=  82.706 min)  33.8 %
Property integrals               ...     1960.530 sec (=  32.675 min)  13.3 %
SCF Response                     ...     3499.366 sec (=  58.323 min)  23.8 %
Property calculations            ...     1641.424 sec (=  27.357 min)  11.2 %
SCF Gradient evaluation          ...     2466.288 sec (=  41.105 min)  16.8 %
Geometry relaxation              ...        0.786 sec (=   0.013 min)   0.0 %
                             ****ORCA TERMINATED NORMALLY****
TOTAL RUN TIME: 0 days 4 hours 5 minutes 2 seconds 59 msec
