
                                 *****************
                                 * O   R   C   A *
                                 *****************

                                            #,                                       
                                            ###                                      
                                            ####                                     
                                            #####                                    
                                            ######                                   
                                           ########,                                 
                                     ,,################,,,,,                         
                               ,,#################################,,                 
                          ,,##########################################,,             
                       ,#########################################, ''#####,          
                    ,#############################################,,   '####,        
                  ,##################################################,,,,####,       
                ,###########''''           ''''###############################       
              ,#####''   ,,,,##########,,,,          '''####'''          '####       
            ,##' ,,,,###########################,,,                        '##       
           ' ,,###''''                  '''############,,,                           
         ,,##''                                '''############,,,,        ,,,,,,###''
      ,#''                                            '''#######################'''  
     '                                                          ''''####''''         
             ,#######,   #######,   ,#######,      ##                                
            ,#'     '#,  ##    ##  ,#'     '#,    #''#        ,####,   ,####,        
            ##       ##  ##   ,#'  ##            #'  '#       #'       #'  '#        
            ##       ##  #######   ##           ,######,      #####,   #    #        
            '#,     ,#'  ##    ##  '#,     ,#' ,#      #,     #,   #   #,  ,#        
             '#######'   ##     ##  '#######'  #'      '#     '####' # '####'        



                #########################################################
                #                        -***-                          #
                #          Department of theory and spectroscopy        #
                #                                                       #
                #                      Frank Neese                      #
                #                                                       #
                #     Directorship, Architecture, Infrastructure        #
                #                    SHARK, DRIVERS                     #
                #        Core code/Algorithms in most modules           #
                #                                                       #
                #        Max Planck Institute fuer Kohlenforschung      #
                #                Kaiser Wilhelm Platz 1                 #
                #                 D-45470 Muelheim/Ruhr                 #
                #                      Germany                          #
                #                                                       #
                #                  All rights reserved                  #
                #                        -***-                          #
                #########################################################


                         Program Version 6.0.1  -  RELEASE   -


 With contributions from (in alphabetic order):
[Max-Planck-Institut fuer Kohlenforschung]                               
  Daniel Aravena         : Magnetic Suceptibility                        
  Michael Atanasov       : Ab Initio Ligand Field Theory (pilot matlab implementation)
  Alexander A. Auer      : GIAO ZORA, VPT2 properties, NMR spectrum      
  Ute Becker             : All parallelization in ORCA, NUMFREQ, NUMCALC 
  Giovanni Bistoni       : ED, misc. LED, open-shell LED, HFLD           
  Martin Brehm           : Molecular dynamics                            
  Dmytro Bykov           : pre 5.0 version of the SCF Hessian            
  Marcos Casanova-Páez   : Triplet and SCS-CIS(D). UHF-(DLPNO)-IP/EA/STEOM-CCSD. UHF-CVS-IP/STEOM-CCSD   
  Vijay G. Chilkuri      : MRCI spin determinant printing, contributions to CSF-ICE 
  Pauline Colinet        : FMM embedding                                 
  Dipayan Datta          : RHF DLPNO-CCSD density                        
  Achintya Kumar Dutta   : EOM-CC, STEOM-CC                              
  Nicolas Foglia         : Exact transition moments, OPA infrastructure, MCD improvements    
  Dmitry Ganyushin       : Spin-Orbit,Spin-Spin,Magnetic field MRCI      
  Miquel Garcia-Rates    : C-PCM and meta-GGA Hessian, CCSD/C-PCM, Gaussian charge scheme 
  Tiago L. C. Gouveia    : GS-ROHF, GS-ROCIS                             
  Yang Guo               : DLPNO-NEVPT2, F12-NEVPT2, CIM, IAO-localization        
  Andreas Hansen         : Spin unrestricted coupled pair/coupled cluster methods 
  Ingolf Harden          : AUTO-CI MPn and infrastructure                
  Benjamin Helmich-Paris : MC-RPA, TRAH-(SCF,CASSCF), AVAS, COSX integrals, SCF dyn. polar. 
  Lee Huntington         : MR-EOM, pCC                                   
  Robert Izsak           : Overlap fitted RIJCOSX, COSX-SCS-MP3, EOM     
  Riya Kayal             : Wick's Theorem for AUTO-CI, AUTO-CI UHF-CCSDT 
  Emily Kempfer          : AUTO-CI, RHF CISDT and CCSDT                  
  Christian Kollmar      : KDIIS, OOCD, Brueckner-CCSD(T), CCSD density, CASPT2, CASPT2-K, improved NEVPT2 
  Axel Koslowski         : Symmetry handling                             
  Simone Kossmann        : meta-GGA functionals, TD-DFT gradient, OOMP2, (MP2 Hessian; deprecated post 5.0) 
  Lucas Lang             : DCDCAS                                        
  Marvin Lechner         : AUTO-CI (C++ implementation), FIC-MRCC        
  Spencer Leger          : CASSCF response                               
  Dagmar Lenk            : GEPOL surface, SMD, ORCA-2-JSON               
  Dimitrios Liakos       : Extrapolation schemes; Compound Job, initial MDCI parallelization 
  Dimitrios Manganas     : Further ROCIS development; embedding schemes. LFT, Crystal Embedding 
  Dimitrios Pantazis     : SARC Basis sets                               
  Anastasios Papadopoulos: AUTO-CI, single reference methods and gradients 
  Taras Petrenko         : pre 6.0 DFT Hessian and TD-DFT gradient, (ASA, deprecated), ECA, 1-Electron XAS/XES, NRVS 
  Peter Pinski           : DLPNO-MP2, DLPNO-MP2 Gradient                 
  Christoph Reimann      : Effective Core Potentials                     
  Marius Retegan         : Local ZFS, SOC                                
  Christoph Riplinger    : Optimizer, TS searches, QM/MM, DLPNO-CCSD(T), (RO)-DLPNO pert. Triples 
  Michael Roemelt        : Original ROCIS implementation                 
  Masaaki Saitow         : Open-shell DLPNO-CCSD energy and density      
  Barbara Sandhoefer     : DKH picture change effects                    
  Kantharuban Sivalingam : CASSCF convergence/infrastructure, NEVPT2 and variants, FIC-MRCI 
  Bernardo de Souza      : ESD, SOC TD-DFT                               
  Georgi L. Stoychev     : AutoAux, RI-MP2 NMR, DLPNO-MP2 response, X2C  
  Van Anh Tran           : RI-MP2 g-tensors                              
  Willem Van den Heuvel  : Paramagnetic NMR                              
  Zikuan Wang            : NOTCH, Electric field optimization            
  Frank Wennmohs         : Technical directorship and infrastructure     
  Hang Xu                : AUTO-CI-Response properties                   
                                                                         
[FACCTs GmbH]                                                            
  Markus Bursch, Miquel Garcia-Rates, Christoph Riplinger, Bernardo de Souza, Georgi L. Stoychev 
                                                                 
  APM, Basis sets (HGBS, AHGBS, def-TZVP (Ac-Lr), def2-XVPD (La-Lu)), CI-OPT, improved COSX, DLPNO-Multilevel,           
  DOCKER, DRACO, updates on ESD, GOAT, IRC, LR-CPCM, MBIS, meta-GGA TD-DFT gradient, ML-optimized integration grids, 
  MM, NACMEs, nearIR, NEB, NEB-TS, NL-DFT gradient (VV10), 2- and 3-layer-ONIOM, interface openCOSMO-RS, QMMM,   
  Crystal-QMMM, SF, symmetry and pop. for TD-DFT, r2SCAN hybrids, SOLVATOR                                   
                                                                         
[Other institutions]                                                     
  V. Asgeirsson          : NEB                                           
  Christoph Bannwarth    : sTDA-DFT, sTD-DFT, PBEh-3c, B97-3c, D3        
  Sebastian Ehlert       : rSCAN, r2SCAN, r2SCAN-3c, D4, dhf basis sets  
  Marvin Friede          : D4 for Fr, Ra, Ac-Lr                          
  Lars Goerigk           : TD-DFT with DH, B97 family of functionals     
  Stefan Grimme          : VdW corrections, initial TS optimization, DFT functionals, gCP, sTDA/sTD-DF 
  Waldemar Hujo          : DFT-NL                                        
  H. Jonsson             : NEB                                           
  Holger Kruse           : gCP                                           
  Marcel Mueller         : wB97X-3c, vDZP basis set                      
  Hagen Neugebauer       : wr2SCAN                                       
  Tobias Risthaus        : range-separated hybrid DFT                    
  Lukas Wittmann         : regularized MP2, r2SCAN double-hybrids, wr2SCAN        
                                                                         
We gratefully acknowledge several colleagues who have allowed us to      
interface, adapt or use parts of their codes:                            
  Ed Valeev, F. Pavosevic, A. Kumar             : LibInt (2-el integral package), F12 methods 
  Garnet Chan, S. Sharma, J. Yang, R. Olivares  : DMRG                   
  Ulf Ekstrom                                   : XCFun DFT Library      
  Mihaly Kallay                                 : mrcc  (arbitrary order and MRCC methods)
  Frank Weinhold                                : gennbo (NPA and NBO analysis)           
  Simon Mueller                                 : openCOSMO-RS                            
  Christopher J. Cramer and Donald G. Truhlar   : smd solvation model                     
  S Lehtola, MJT Oliveira, MAL Marques          : LibXC Library                           
  Liviu Ungur et al                             : ANISO software                          


 Your calculation uses the libint2 library for the computation of 2-el integrals
 For citations please refer to: http://libint.valeyev.net

 Your ORCA version has been built with support for libXC version: 6.2.2
 For citations please refer to: https://libxc.gitlab.io

 This ORCA versions uses:
   CBLAS   interface :  Fast vector & matrix operations
   LAPACKE interface :  Fast linear algebra routines
   SCALAPACK package :  Parallel linear algebra routines
   Shared memory     :  Shared parallel matrices
   BLAS/LAPACK       :  OpenBLAS 0.3.27  USE64BITINT DYNAMIC_ARCH NO_AFFINITY Cooperlake SINGLE_THREADED
        Core in use  :  Cooperlake
   Copyright (c) 2011-2014, The OpenBLAS Project


Warning: RI is on but no J-basis has been assigned. Assigning Def2/J (nothing to worry about!)
================================================================================

----- Orbital basis set information -----
Your calculation utilizes the basis: def2-TZVP(-f)
   F. Weigend and R. Ahlrichs, Phys. Chem. Chem. Phys. 7, 3297 (2005).

----- AuxJ basis set information -----
Your calculation utilizes the auxiliary basis: def2/J
   F. Weigend, Phys. Chem. Chem. Phys. 8, 1057 (2006).

================================================================================
                                        WARNINGS
                       Please study these warnings very carefully!
================================================================================

INFO   : Checking CIS options ...

WARNING: (CIS/TDDFT): Analytic excited state gradients requested
  ===> : turning on equilibrium dielectric conditions.

WARNING: Analytical Frequencies for this method not available!
  ===> : Switching to Numerical Frequencies!

WARNING: Geometry Optimization
  ===> : Switching off AutoStart
         For restart on a previous wavefunction, please use MOREAD

WARNING: CIS/ROCIS methods need fully converged wavefunctions
  ===> : Setting SCFConvForced true
         You can overwrite this default with %scf ConvForced false 


================================================================================
                                       INPUT FILE
================================================================================
NAME = hbq-dcp-es.inp
|  1> ! B3LYP/G VERYTIGHTOPT FREQ Def2-TZVP(-f) TightSCF CPCM(Water)
|  2> %tddft
|  3>     NRoots 3
|  4>     IRoot 1
|  5> end 
|  6> 
|  7> * xyz 1 1 
|  8>   C     -4.794314    0.324739    0.452676
|  9>   C     -5.400451   -0.529215    1.368949
| 10>   C     -4.615858   -1.113716    2.336225
| 11>   C     -3.424989    0.633801    0.540123
| 12>   C     -2.631283    0.201311    1.625052
| 13>   O     -2.948943    1.345047   -0.512676
| 14>   C     -3.224722   -0.789018    2.460978
| 15>   C     -2.435341   -1.476647    3.396948
| 16>   C     -1.083168   -1.223464    3.476997
| 17>   C     -1.290817    0.611651    1.906199
| 18>   C     -0.480115   -0.174914    2.730098
| 19>   N     -0.734003    1.799462    1.350888
| 20>   C      0.662692    1.837528    1.219208
| 21>   C      1.474874    0.983837    1.915584
| 22>   C      0.925660    0.038180    2.777569
| 23>   C     -1.893675    0.841997   -1.292133
| 24>   O     -1.338851   -0.200374   -1.021824
| 25>   N     -1.641609    1.653386   -2.328747
| 26>   C     -2.451200    2.807876   -2.710621
| 27>   C     -0.624058    1.245995   -3.293469
| 28>   H     -1.094005    0.817195   -4.182200
| 29>   H      0.035828    0.511393   -2.844739
| 30>   H     -0.051342    2.124683   -3.588148
| 31>   H     -1.787448    3.647804   -2.914831
| 32>   H     -3.136550    3.081628   -1.919387
| 33>   H     -3.012046    2.576598   -3.619243
| 34>   H     -5.033244   -1.829598    3.031865
| 35>   H     -5.347129    0.735447   -0.381313
| 36>   H     -6.452953   -0.759446    1.288438
| 37>   H     -2.888388   -2.238212    4.017377
| 38>   H     -0.458642   -1.811566    4.137284
| 39>   H      1.047946    2.624770    0.589909
| 40>   H      2.545563    1.080461    1.799312
| 41>   H      1.540558   -0.573101    3.421013
| 42>   P     -1.499399    3.331994    1.597641
| 43>   O     -2.933259    3.197845    1.893396
| 44>   O     -1.047777    4.042174    0.269124
| 45>   O     -0.652556    4.089628    2.699985
| 46>   C     -1.222621    5.488053    0.068226
| 47>   C     -1.066301    4.194370    4.103143
| 48>   C     -0.190223    5.957113   -0.926959
| 49>   H     -1.107587    5.990262    1.027679
| 50>   H     -2.237714    5.636871   -0.296893
| 51>   H      0.819382    5.799711   -0.545914
| 52>   H     -0.329895    7.025291   -1.103415
| 53>   H     -0.296643    5.435312   -1.878387
| 54>   C     -0.144001    3.387110    4.986039
| 55>   H     -2.101358    3.868800    4.186874
| 56>   H     -1.011345    5.257230    4.331943
| 57>   H      0.890940    3.711242    4.870324
| 58>   H     -0.209076    2.322665    4.758301
| 59>   H     -0.434858    3.533869    6.028382
| 60> *
| 61> 
| 62> 
| 63>                          ****END OF INPUT****
================================================================================

                       *****************************
                       * Geometry Optimization Run *
                       *****************************

Geometry optimization settings:
Update method            Update   .... BFGS
Choice of coordinates    CoordSys .... (2022) Redundant Internals
Initial Hessian          InHess   .... Almloef's Model
Max. no of cycles        MaxIter  .... 156

Convergence Tolerances:
Energy Change            TolE     ....  2.0000e-07 Eh
Max. Gradient            TolMAXG  ....  3.0000e-05 Eh/bohr
RMS Gradient             TolRMSG  ....  8.0000e-06 Eh/bohr
Max. Displacement        TolMAXD  ....  2.0000e-04 bohr
RMS Displacement         TolRMSD  ....  1.0000e-04 bohr
Strict Convergence                .... False

------------------------------------------------------------------------------
                        ORCA OPTIMIZATION COORDINATE SETUP
------------------------------------------------------------------------------

The optimization will be done in redundant internal coordinates (2022)
Making redundant internal coordinates   ...  (2022 redundants) done
Evaluating the initial hessian          ...  (Almloef) done
Evaluating the coordinates              ...  done
Calculating the B-matrix                .... done
Calculating the G-matrix                .... done
Diagonalizing the G-matrix              .... done
Small eigenvalue found = 1.461e-03
Small eigenvalue found = 4.657e-03
Small eigenvalue found = 5.815e-03
Small eigenvalue found = 6.697e-03
Small eigenvalue found = 7.907e-03
Small eigenvalue found = 1.293e-02
Small eigenvalue found = 2.040e-02
Small eigenvalue found = 2.091e-02
Small eigenvalue found = 2.564e-02
The first mode is                       ....  109
The number of degrees of freedom        ....  150

    -----------------------------------------------------------------
                    Redundant Internal Coordinates


    -----------------------------------------------------------------
         Definition                    Initial Value    Approx d2E/dq
    -----------------------------------------------------------------
      1. B(C   1,C   0)                  1.3915         0.621426   
      2. B(C   2,C   1)                  1.3758         0.658233   
      3. B(C   3,C   0)                  1.4065         0.588069   
      4. B(C   4,C   3)                  1.4121         0.576030   
      5. B(O   5,C   3)                  1.3568         0.632210   
      6. B(C   6,C   4)                  1.4254         0.548656   
      7. B(C   6,C   2)                  1.4340         0.531615   
      8. B(C   7,C   6)                  1.4043         0.592870   
      9. B(C   8,C   7)                  1.3780         0.652958   
     10. B(C   9,C   4)                  1.4298         0.539848   
     11. B(C  10,C   9)                  1.3981         0.606440   
     12. B(C  10,C   8)                  1.4216         0.556288   
     13. B(N  11,C   9)                  1.4245         0.492916   
     14. B(C  12,N  11)                  1.4034         0.532707   
     15. B(C  13,C  12)                  1.3687         0.675624   
     16. B(C  14,C  13)                  1.3925         0.619195   
     17. B(C  14,C  10)                  1.4226         0.554224   
     18. B(C  15,O   5)                  1.4051         0.529472   
     19. B(O  16,C  15)                  1.2114         1.078592   
     20. B(N  17,C  15)                  1.3403         0.671640   
     21. B(C  18,N  17)                  1.4609         0.431343   
     22. B(C  19,N  17)                  1.4602         0.432454   
     23. B(H  20,C  19)                  1.0930         0.356205   
     24. B(H  21,C  19)                  1.0846         0.367258   
     25. B(H  22,C  19)                  1.0895         0.360810   
     26. B(H  23,C  18)                  1.0898         0.360314   
     27. B(H  24,C  18)                  1.0820         0.370858   
     28. B(H  25,C  18)                  1.0925         0.356763   
     29. B(H  26,C   2)                  1.0819         0.370910   
     30. B(H  27,C   0)                  1.0816         0.371408   
     31. B(H  28,C   1)                  1.0804         0.373036   
     32. B(H  29,C   7)                  1.0817         0.371192   
     33. B(H  30,C   8)                  1.0825         0.370116   
     34. B(H  31,C  12)                  1.0790         0.374984   
     35. B(H  32,C  13)                  1.0813         0.371782   
     36. B(H  33,C  14)                  1.0797         0.373966   
     37. B(P  34,N  11)                  1.7307         0.537999   
     38. B(O  35,P  34)                  1.4702         1.401043   
     39. B(O  36,P  34)                  1.5727         0.961477   
     40. B(O  37,P  34)                  1.5831         0.925200   
     41. B(C  38,O  36)                  1.4702         0.416790   
     42. B(C  39,O  37)                  1.4666         0.422294   
     43. B(C  40,C  38)                  1.5087         0.403941   
     44. B(H  41,C  38)                  1.0890         0.361379   
     45. B(H  42,C  38)                  1.0890         0.361455   
     46. B(H  43,C  40)                  1.0905         0.359389   
     47. B(H  44,C  40)                  1.0916         0.357954   
     48. B(H  45,H  23)                  2.5479         0.000325   
     49. B(H  45,C  40)                  1.0903         0.359665   
     50. B(C  46,C  39)                  1.5106         0.401220   
     51. B(H  47,C  39)                  1.0883         0.362385   
     52. B(H  48,C  39)                  1.0886         0.361962   
     53. B(H  49,C  46)                  1.0907         0.359219   
     54. B(H  50,C  46)                  1.0905         0.359468   
     55. B(H  51,C  46)                  1.0921         0.357373   
     56. A(C   1,C   0,C   3)          121.1990         0.430138   
     57. A(C   1,C   0,H  27)          121.2079         0.354900   
     58. A(C   3,C   0,H  27)          117.5233         0.351601   
     59. A(C   0,C   1,C   2)          118.3769         0.438953   
     60. A(C   0,C   1,H  28)          120.4026         0.355164   
     61. A(C   2,C   1,H  28)          121.1590         0.358653   
     62. A(C   1,C   2,H  26)          120.8730         0.358304   
     63. A(C   6,C   2,H  26)          117.9134         0.345592   
     64. A(C   1,C   2,C   6)          121.2124         0.426805   
     65. A(C   4,C   3,O   5)          124.0214         0.427065   
     66. A(C   0,C   3,O   5)          114.1130         0.428651   
     67. A(C   0,C   3,C   4)          121.8490         0.424331   
     68. A(C   6,C   4,C   9)          118.3211         0.414296   
     69. A(C   3,C   4,C   9)          126.1664         0.417900   
     70. A(C   3,C   4,C   6)          115.4268         0.419107   
     71. A(C   3,O   5,C  15)          120.4169         0.417948   
     72. A(C   4,C   6,C   7)          119.8058         0.421267   
     73. A(C   2,C   6,C   7)          119.5015         0.418903   
     74. A(C   2,C   6,C   4)          120.6775         0.413166   
     75. A(C   6,C   7,H  29)          119.4448         0.352050   
     76. A(C   6,C   7,C   8)          120.0226         0.434617   
     77. A(C   8,C   7,H  29)          120.4640         0.357861   
     78. A(C  10,C   8,H  30)          118.4525         0.348115   
     79. A(C   7,C   8,H  30)          120.1136         0.357684   
     80. A(C   7,C   8,C  10)          121.4161         0.429671   
     81. A(C   4,C   9,C  10)          119.8709         0.421752   
     82. A(C  10,C   9,N  11)          118.1750         0.412290   
     83. A(C   4,C   9,N  11)          121.9451         0.403890   
     84. A(C   9,C  10,C  14)          120.5559         0.423738   
     85. A(C   8,C  10,C  14)          120.8057         0.417261   
     86. A(C   8,C  10,C   9)          118.5930         0.424019   
     87. A(C   9,N  11,P  34)          120.6574         0.428068   
     88. A(C   9,N  11,C  12)          116.6281         0.400359   
     89. A(C  12,N  11,P  34)          115.4351         0.434078   
     90. A(N  11,C  12,H  31)          115.4589         0.344229   
     91. A(N  11,C  12,C  13)          121.7288         0.426165   
     92. A(C  13,C  12,H  31)          122.6799         0.360569   
     93. A(C  12,C  13,H  32)          118.4975         0.360043   
     94. A(C  12,C  13,C  14)          120.2980         0.440738   
     95. A(C  14,C  13,H  32)          121.1847         0.354745   
     96. A(C  10,C  14,H  33)          119.8570         0.348504   
     97. A(C  10,C  14,C  13)          118.0876         0.425318   
     98. A(C  13,C  14,H  33)          121.9229         0.355097   
     99. A(O  16,C  15,N  17)          127.3985         0.480756   
    100. A(O   5,C  15,N  17)          110.7048         0.422483   
    101. A(O   5,C  15,O  16)          121.8891         0.460224   
    102. A(C  18,N  17,C  19)          115.7207         0.377171   
    103. A(C  15,N  17,C  19)          118.2386         0.407551   
    104. A(C  15,N  17,C  18)          125.1950         0.407365   
    105. A(N  17,C  18,H  25)          109.5479         0.329595   
    106. A(H  23,C  18,H  24)          109.1358         0.292216   
    107. A(H  23,C  18,H  25)          108.6604         0.290442   
    108. A(N  17,C  18,H  24)          111.0892         0.331714   
    109. A(N  17,C  18,H  23)          108.6945         0.330135   
    110. A(H  24,C  18,H  25)          109.6684         0.291761   
    111. A(H  21,C  19,H  22)          109.7748         0.291831   
    112. A(H  20,C  19,H  22)          108.8154         0.290433   
    113. A(N  17,C  19,H  22)          108.6640         0.330351   
    114. A(H  20,C  19,H  21)          109.4075         0.291242   
    115. A(N  17,C  19,H  21)          109.8524         0.331320   
    116. A(N  17,C  19,H  20)          110.3076         0.329650   
    117. A(N  11,P  34,O  36)           98.7678         0.517563   
    118. A(N  11,P  34,O  35)          112.2842         0.555685   
    119. A(O  36,P  34,O  37)          102.6201         0.573515   
    120. A(O  35,P  34,O  37)          115.1693         0.616614   
    121. A(N  11,P  34,O  37)          106.6472         0.513849   
    122. A(O  35,P  34,O  36)          119.4208         0.621227   
    123. A(P  34,O  36,C  38)          121.6943         0.461279   
    124. A(P  34,O  37,C  39)          123.3289         0.459150   
    125. A(H  41,C  38,H  42)          109.3194         0.291173   
    126. A(C  40,C  38,H  42)          111.9754         0.328722   
    127. A(O  36,C  38,H  42)          106.9220         0.328440   
    128. A(C  40,C  38,H  41)          111.4372         0.328711   
    129. A(O  36,C  38,H  41)          108.6975         0.328429   
    130. A(O  36,C  38,C  40)          108.3313         0.372897   
    131. A(C  46,C  39,H  48)          111.5988         0.328431   
    132. A(O  37,C  39,H  48)          104.8666         0.329229   
    133. A(C  46,C  39,H  47)          112.0777         0.328495   
    134. A(O  37,C  39,H  47)          108.6964         0.329292   
    135. A(O  37,C  39,C  46)          110.4124         0.373306   
    136. A(H  47,C  39,H  48)          108.9009         0.291365   
    137. A(H  44,C  40,H  45)          108.3458         0.290511   
    138. A(H  43,C  40,H  45)          109.0373         0.290694   
    139. A(C  38,C  40,H  45)          111.1010         0.328453   
    140. A(H  43,C  40,H  44)          108.4313         0.290476   
    141. A(C  38,C  40,H  44)          108.8620         0.328194   
    142. A(C  38,C  40,H  43)          110.9866         0.328411   
    143. A(H  50,C  46,H  51)          108.3377         0.290412   
    144. A(H  49,C  46,H  51)          108.3037         0.290381   
    145. A(C  39,C  46,H  51)          108.8707         0.327741   
    146. A(H  49,C  46,H  50)          108.9390         0.290647   
    147. A(C  39,C  46,H  50)          111.2938         0.328057   
    148. A(C  39,C  46,H  49)          111.0105         0.328020   
    149. D(C   2,C   1,C   0,C   3)     -2.6940         0.026729   
    150. D(H  28,C   1,C   0,H  27)     -2.9844         0.026729   
    151. D(C   2,C   1,C   0,H  27)    174.1938         0.026729   
    152. D(H  28,C   1,C   0,C   3)   -179.8721         0.026729   
    153. D(C   6,C   2,C   1,H  28)   -178.7487         0.030222   
    154. D(H  26,C   2,C   1,C   0)   -176.3124         0.030222   
    155. D(C   6,C   2,C   1,C   0)      4.0955         0.030222   
    156. D(H  26,C   2,C   1,H  28)      0.8435         0.030222   
    157. D(C   4,C   3,C   0,H  27)    176.8318         0.023791   
    158. D(O   5,C   3,C   0,C   1)    172.4015         0.023791   
    159. D(O   5,C   3,C   0,H  27)     -4.5970         0.023791   
    160. D(C   4,C   3,C   0,C   1)     -6.1697         0.023791   
    161. D(C   6,C   4,C   3,O   5)   -165.6315         0.022782   
    162. D(C   9,C   4,C   3,C   0)   -170.6486         0.022782   
    163. D(C   6,C   4,C   3,C   0)     12.7950         0.022782   
    164. D(C   9,C   4,C   3,O   5)     10.9249         0.022782   
    165. D(C  15,O   5,C   3,C   4)     57.0415         0.029409   
    166. D(C  15,O   5,C   3,C   0)   -121.4942         0.029409   
    167. D(C   7,C   6,C   4,C   9)     -9.5108         0.020589   
    168. D(C   2,C   6,C   4,C   9)    171.9126         0.020589   
    169. D(C   2,C   6,C   4,C   3)    -11.2452         0.020589   
    170. D(C   7,C   6,C   4,C   3)    167.3315         0.020589   
    171. D(C   7,C   6,C   2,H  26)      4.9563         0.019294   
    172. D(C   4,C   6,C   2,H  26)   -176.4627         0.019294   
    173. D(C   4,C   6,C   2,C   1)      3.1412         0.019294   
    174. D(C   7,C   6,C   2,C   1)   -175.4398         0.019294   
    175. D(H  29,C   7,C   6,C   4)   -179.0258         0.024201   
    176. D(H  29,C   7,C   6,C   2)     -0.4323         0.024201   
    177. D(C   8,C   7,C   6,C   4)     -2.0237         0.024201   
    178. D(C   8,C   7,C   6,C   2)    176.5698         0.024201   
    179. D(C  10,C   8,C   7,C   6)      6.8076         0.029705   
    180. D(H  30,C   8,C   7,H  29)      2.2231         0.029705   
    181. D(H  30,C   8,C   7,C   6)   -174.7481         0.029705   
    182. D(C  10,C   8,C   7,H  29)   -176.2212         0.029705   
    183. D(N  11,C   9,C   4,C   6)   -164.4551         0.019913   
    184. D(N  11,C   9,C   4,C   3)     19.0779         0.019913   
    185. D(C  10,C   9,C   4,C   6)     16.6529         0.019913   
    186. D(C  10,C   9,C   4,C   3)   -159.8141         0.019913   
    187. D(C  14,C  10,C   9,N  11)    -13.4841         0.025383   
    188. D(C  14,C  10,C   9,C   4)    165.4493         0.025383   
    189. D(C   8,C  10,C   9,N  11)    168.9499         0.025383   
    190. D(C   8,C  10,C   9,C   4)    -12.1166         0.025383   
    191. D(C  14,C  10,C   8,H  30)      4.2879         0.021187   
    192. D(C  14,C  10,C   8,C   7)   -177.2426         0.021187   
    193. D(C   9,C  10,C   8,H  30)   -178.1524         0.021187   
    194. D(C   9,C  10,C   8,C   7)      0.3171         0.021187   
    195. D(P  34,N  11,C   9,C  10)   -124.5293         0.019192   
    196. D(P  34,N  11,C   9,C   4)     56.5606         0.019192   
    197. D(C  12,N  11,C   9,C  10)     24.3078         0.019192   
    198. D(C  12,N  11,C   9,C   4)   -154.6022         0.019192   
    199. D(H  31,C  12,N  11,P  34)    -43.6856         0.022546   
    200. D(H  31,C  12,N  11,C   9)    165.8474         0.022546   
    201. D(C  13,C  12,N  11,P  34)    132.2366         0.022546   
    202. D(C  13,C  12,N  11,C   9)    -18.2305         0.022546   
    203. D(H  32,C  13,C  12,H  31)     -2.3794         0.031965   
    204. D(H  32,C  13,C  12,N  11)   -178.0046         0.031965   
    205. D(C  14,C  13,C  12,H  31)    176.0234         0.031965   
    206. D(C  14,C  13,C  12,N  11)      0.3982         0.031965   
    207. D(C  10,C  14,C  13,C  12)     11.1142         0.026526   
    208. D(H  33,C  14,C  10,C   9)    179.7410         0.021024   
    209. D(H  33,C  14,C  10,C   8)     -2.7473         0.021024   
    210. D(C  13,C  14,C  10,C   9)     -4.3635         0.021024   
    211. D(C  13,C  14,C  10,C   8)    173.1482         0.021024   
    212. D(H  33,C  14,C  13,H  32)      5.2793         0.026526   
    213. D(H  33,C  14,C  13,C  12)   -173.0800         0.026526   
    214. D(C  10,C  14,C  13,H  32)   -170.5265         0.026526   
    215. D(N  17,C  15,O   5,C   3)    175.7522         0.020211   
    216. D(O  16,C  15,O   5,C   3)     -3.3145         0.020211   
    217. D(C  19,N  17,C  15,O  16)      2.5393         0.037032   
    218. D(C  19,N  17,C  15,O   5)   -176.4631         0.037032   
    219. D(C  18,N  17,C  15,O  16)    171.5294         0.037032   
    220. D(C  18,N  17,C  15,O   5)     -7.4730         0.037032   
    221. D(H  25,C  18,N  17,C  15)   -107.0407         0.015863   
    222. D(H  24,C  18,N  17,C  19)   -176.4897         0.015863   
    223. D(H  24,C  18,N  17,C  15)     14.2736         0.015863   
    224. D(H  23,C  18,N  17,C  19)    -56.3968         0.015863   
    225. D(H  23,C  18,N  17,C  15)    134.3665         0.015863   
    226. D(H  22,C  19,N  17,C  15)   -140.5918         0.015945   
    227. D(H  21,C  19,N  17,C  18)    169.4914         0.015945   
    228. D(H  21,C  19,N  17,C  15)    -20.4843         0.015945   
    229. D(H  20,C  19,N  17,C  18)    -69.8243         0.015945   
    230. D(H  20,C  19,N  17,C  15)    100.2001         0.015945   
    231. D(O  37,P  34,N  11,C   9)    103.3724         0.006072   
    232. D(O  36,P  34,N  11,C  12)     60.2580         0.006072   
    233. D(O  36,P  34,N  11,C   9)   -150.5549         0.006072   
    234. D(O  35,P  34,N  11,C  12)   -172.8470         0.006072   
    235. D(O  35,P  34,N  11,C   9)    -23.6599         0.006072   
    236. D(C  38,O  36,P  34,O  37)    -59.0776         0.015887   
    237. D(C  38,O  36,P  34,O  35)     69.7234         0.015887   
    238. D(C  38,O  36,P  34,N  11)   -168.4418         0.015887   
    239. D(C  39,O  37,P  34,O  36)    154.6628         0.014742   
    240. D(C  39,O  37,P  34,O  35)     23.2561         0.014742   
    241. D(C  39,O  37,P  34,N  11)   -102.0411         0.014742   
    242. D(H  42,C  38,O  36,P  34)    -84.6666         0.013694   
    243. D(H  41,C  38,O  36,P  34)     33.2404         0.013694   
    244. D(C  40,C  38,O  36,P  34)    154.4790         0.013694   
    245. D(H  48,C  39,O  37,P  34)   -128.2209         0.014052   
    246. D(H  47,C  39,O  37,P  34)    -11.8836         0.014052   
    247. D(C  46,C  39,O  37,P  34)    111.4372         0.014052   
    248. D(H  44,C  40,C  38,H  42)     60.7965         0.012937   
    249. D(H  44,C  40,C  38,H  41)    -62.0038         0.012937   
    250. D(H  44,C  40,C  38,O  36)    178.4648         0.012937   
    251. D(H  43,C  40,C  38,H  42)   -179.9354         0.012937   
    252. D(H  43,C  40,C  38,H  41)     57.2644         0.012937   
    253. D(H  43,C  40,C  38,O  36)    -62.2671         0.012937   
    254. D(H  50,C  46,C  39,H  48)    179.5312         0.012769   
    255. D(H  50,C  46,C  39,H  47)     57.0826         0.012769   
    256. D(H  50,C  46,C  39,O  37)    -64.2521         0.012769   
    257. D(H  49,C  46,C  39,H  48)    -58.9453         0.012769   
    258. D(H  49,C  46,C  39,H  47)    178.6062         0.012769   
    259. D(H  49,C  46,C  39,O  37)     57.2714         0.012769   
    -----------------------------------------------------------------

Number of atoms                         .... 52
Number of degrees of freedom            .... 259


         *************************************************************
         *                GEOMETRY OPTIMIZATION CYCLE   1            *
         *************************************************************
---------------------------------
CARTESIAN COORDINATES (ANGSTROEM)
---------------------------------
  C     -4.794314    0.324739    0.452676
  C     -5.400451   -0.529215    1.368949
  C     -4.615858   -1.113716    2.336225
  C     -3.424989    0.633801    0.540123
  C     -2.631283    0.201311    1.625052
  O     -2.948943    1.345047   -0.512676
  C     -3.224722   -0.789018    2.460978
  C     -2.435341   -1.476647    3.396948
  C     -1.083168   -1.223464    3.476997
  C     -1.290817    0.611651    1.906199
  C     -0.480115   -0.174914    2.730098
  N     -0.734003    1.799462    1.350888
  C      0.662692    1.837528    1.219208
  C      1.474874    0.983837    1.915584
  C      0.925660    0.038180    2.777569
  C     -1.893675    0.841997   -1.292133
  O     -1.338851   -0.200374   -1.021824
  N     -1.641609    1.653386   -2.328747
  C     -2.451200    2.807876   -2.710621
  C     -0.624058    1.245995   -3.293469
  H     -1.094005    0.817195   -4.182200
  H      0.035828    0.511393   -2.844739
  H     -0.051342    2.124683   -3.588148
  H     -1.787448    3.647804   -2.914831
  H     -3.136550    3.081628   -1.919387
  H     -3.012046    2.576598   -3.619243
  H     -5.033244   -1.829598    3.031865
  H     -5.347129    0.735447   -0.381313
  H     -6.452953   -0.759446    1.288438
  H     -2.888388   -2.238212    4.017377
  H     -0.458642   -1.811566    4.137284
  H      1.047946    2.624770    0.589909
  H      2.545563    1.080461    1.799312
  H      1.540558   -0.573101    3.421013
  P     -1.499399    3.331994    1.597641
  O     -2.933259    3.197845    1.893396
  O     -1.047777    4.042174    0.269124
  O     -0.652556    4.089628    2.699985
  C     -1.222621    5.488053    0.068226
  C     -1.066301    4.194370    4.103143
  C     -0.190223    5.957113   -0.926959
  H     -1.107587    5.990262    1.027679
  H     -2.237714    5.636871   -0.296893
  H      0.819382    5.799711   -0.545914
  H     -0.329895    7.025291   -1.103415
  H     -0.296643    5.435312   -1.878387
  C     -0.144001    3.387110    4.986039
  H     -2.101358    3.868800    4.186874
  H     -1.011345    5.257230    4.331943
  H      0.890940    3.711242    4.870324
  H     -0.209076    2.322665    4.758301
  H     -0.434858    3.533869    6.028382

----------------------------
CARTESIAN COORDINATES (A.U.)
----------------------------
  NO LB      ZA    FRAG     MASS         X           Y           Z
   0 C     6.0000    0    12.011   -9.059940    0.613668    0.855434
   1 C     6.0000    0    12.011  -10.205373   -1.000071    2.586939
   2 C     6.0000    0    12.011   -8.722707   -2.104618    4.414825
   3 C     6.0000    0    12.011   -6.472291    1.197710    1.020685
   4 C     6.0000    0    12.011   -4.972404    0.380423    3.070903
   5 O     8.0000    0    15.999   -5.572695    2.541770   -0.968817
   6 C     6.0000    0    12.011   -6.093841   -1.491028    4.650574
   7 C     6.0000    0    12.011   -4.602128   -2.790458    6.419301
   8 C     6.0000    0    12.011   -2.046891   -2.312012    6.570572
   9 C     6.0000    0    12.011   -2.439291    1.155853    3.602194
  10 C     6.0000    0    12.011   -0.907286   -0.330540    5.159138
  11 N     7.0000    0    14.007   -1.387065    3.400490    2.552808
  12 C     6.0000    0    12.011    1.252306    3.472425    2.303969
  13 C     6.0000    0    12.011    2.787108    1.859182    3.619929
  14 C     6.0000    0    12.011    1.749244    0.072150    5.248845
  15 C     6.0000    0    12.011   -3.578527    1.591144   -2.441777
  16 O     8.0000    0    15.999   -2.530062   -0.378652   -1.930968
  17 N     7.0000    0    14.007   -3.102191    3.124447   -4.400694
  18 C     6.0000    0    12.011   -4.632097    5.306117   -5.122331
  19 C     6.0000    0    12.011   -1.179299    2.354589   -6.223754
  20 H     1.0000    0     1.008   -2.067370    1.544275   -7.903213
  21 H     1.0000    0     1.008    0.067705    0.966393   -5.375778
  22 H     1.0000    0     1.008   -0.097022    4.015069   -6.780617
  23 H     1.0000    0     1.008   -3.377787    6.893351   -5.508232
  24 H     1.0000    0     1.008   -5.927221    5.823433   -3.627116
  25 H     1.0000    0     1.008   -5.691942    4.869065   -6.839378
  26 H     1.0000    0     1.008   -9.511453   -3.457439    5.729395
  27 H     1.0000    0     1.008  -10.104609    1.389793   -0.720577
  28 H     1.0000    0     1.008  -12.194314   -1.435145    2.434795
  29 H     1.0000    0     1.008   -5.458262   -4.229608    7.591742
  30 H     1.0000    0     1.008   -0.866708   -3.423364    7.818334
  31 H     1.0000    0     1.008    1.980331    4.960096    1.114766
  32 H     1.0000    0     1.008    4.810417    2.041775    3.400207
  33 H     1.0000    0     1.008    2.911233   -1.083004    6.464778
  34 P    15.0000    0    30.974   -2.833453    6.296556    3.019104
  35 O     8.0000    0    15.999   -5.543056    6.043051    3.578000
  36 O     8.0000    0    15.999   -1.980012    7.638602    0.508571
  37 O     8.0000    0    15.999   -1.233152    7.728277    5.102232
  38 C     6.0000    0    12.011   -2.310419   10.370917    0.128928
  39 C     6.0000    0    12.011   -2.015017    7.926211    7.753817
  40 C     6.0000    0    12.011   -0.359469   11.257312   -1.751699
  41 H     1.0000    0     1.008   -2.093036   11.319955    1.942032
  42 H     1.0000    0     1.008   -4.228667   10.652142   -0.561046
  43 H     1.0000    0     1.008    1.548408   10.959865   -1.031628
  44 H     1.0000    0     1.008   -0.623411   13.275876   -2.085152
  45 H     1.0000    0     1.008   -0.560574   10.271251   -3.549637
  46 C     6.0000    0    12.011   -0.272122    6.400710    9.422248
  47 H     1.0000    0     1.008   -3.970991    7.310972    7.912045
  48 H     1.0000    0     1.008   -1.911165    9.934725    8.186186
  49 H     1.0000    0     1.008    1.683633    7.013231    9.203579
  50 H     1.0000    0     1.008   -0.395096    4.389201    8.991886
  51 H     1.0000    0     1.008   -0.821763    6.678045   11.391991

--------------------------------
INTERNAL COORDINATES (ANGSTROEM)
--------------------------------
 C      0   0   0     0.000000000000     0.00000000     0.00000000
 C      1   0   0     1.391472496104     0.00000000     0.00000000
 C      2   1   0     1.375809018297   118.37686039     0.00000000
 C      1   2   3     1.406491113828   121.19899227   357.30603718
 C      4   1   2     1.412121719108   121.84898627   353.83027701
 O      4   1   2     1.356789003874   114.11298946   172.40150240
 C      5   4   1     1.425374916448   115.42678111    12.79499396
 C      7   5   4     1.404277695366   119.80583921   167.33150923
 C      8   7   5     1.377999018802   120.02258532   357.97628078
 C      5   4   1     1.429780279751   126.16644438   189.35140294
 C     10   5   4     1.398117231934   119.87087253   200.18589279
 N     10   5   4     1.424537507066   121.94514930    19.07792042
 C     12  10   5     1.403404989937   116.62809895   205.39776630
 C     13  12  10     1.368710143888   121.72876948   341.76952454
 C     14  13  12     1.392451550206   120.29799797     0.39824233
 C      6   4   1     1.405063368383   120.41691839   238.50578232
 O     16   6   4     1.211376872859   121.88906012   356.68554759
 N     16   6   4     1.340320097094   110.70481050   175.75217789
 C     18  16   6     1.460860191551   125.19498296   352.52699218
 C     18  16   6     1.460159580925   118.23859209   183.53686064
 H     20  18  16     1.092960389570   110.30762346   100.20007152
 H     20  18  16     1.084641988999   109.85237372   339.51574875
 H     20  18  16     1.089464056792   108.66399801   219.40823055
 H     19  18  16     1.089838284695   108.69448883   134.36650260
 H     19  18  16     1.081987071438   111.08923903    14.27357354
 H     19  18  16     1.092534524802   109.54790377   252.95932287
 H      3   2   1     1.081948760580   120.87296176   183.68763509
 H      1   2   3     1.081583624881   121.20793364   174.19380688
 H      2   1   3     1.080392888946   120.40255217   182.82184177
 H      8   7   5     1.081741640816   119.44483510   180.97416377
 H      9   8   7     1.082532036223   120.11364949   185.25194677
 H     13  12  10     1.078975366948   115.45886964   165.84735288
 H     14  13  12     1.081309534815   118.49751635   181.99541723
 H     15  14  13     1.079714866296   121.92288236   186.92004783
 P     12  10   5     1.730714422095   120.65740055    56.56063857
 O     35  12  10     1.470177361350   112.28421917   336.34013601
 O     35  12  10     1.572665089132    98.76775726   209.44510851
 O     35  12  10     1.583134434892   106.64718037   103.37238615
 C     37  35  12     1.470202881707   121.69432201   191.55815355
 C     38  35  12     1.466631577648   123.32892417   257.95890121
 C     39  37  35     1.508726647948   108.33125388   154.47898180
 H     39  37  35     1.089034783671   108.69751140    33.24044705
 H     39  37  35     1.088977722423   106.92199087   275.33336562
 H     41  39  37     1.090537912066   110.98663510   297.73292622
 H     41  39  37     1.091626871785   108.86204507   178.46477078
 H     41  39  37     1.090328729872   111.10095084    59.23249190
 C     40  38  35     1.510566564047   110.41240271   111.43716982
 H     40  38  35     1.088278318497   108.69640582   348.11640560
 H     40  38  35     1.088595876134   104.86660272   231.77910851
 H     47  40  38     1.090666946474   111.01053540    57.27140981
 H     47  40  38     1.090478110873   111.29381607   295.74787236
 H     47  40  38     1.092069104123   108.87071625   176.40255320

---------------------------
INTERNAL COORDINATES (A.U.)
---------------------------
 C      0   0   0     0.000000000000     0.00000000     0.00000000
 C      1   0   0     2.629501940520     0.00000000     0.00000000
 C      2   1   0     2.599902257159   118.37686039     0.00000000
 C      1   2   3     2.657883014929   121.19899227   357.30603718
 C      4   1   2     2.668523316877   121.84898627   353.83027701
 O      4   1   2     2.563959638837   114.11298946   172.40150240
 C      5   4   1     2.693568230247   115.42678111    12.79499396
 C      7   5   4     2.653700260216   119.80583921   167.33150923
 C      8   7   5     2.604040758348   120.02258532   357.97628078
 C      5   4   1     2.701893160411   126.16644438   189.35140294
 C     10   5   4     2.642058671471   119.87087253   200.18589279
 N     10   5   4     2.691985755854   121.94514930    19.07792042
 C     12  10   5     2.652051085960   116.62809895   205.39776630
 C     13  12  10     2.586487328668   121.72876948   341.76952454
 C     14  13  12     2.631352084643   120.29799797     0.39824233
 C      6   4   1     2.655184967050   120.41691839   238.50578232
 O     16   6   4     2.289170534670   121.88906012   356.68554759
 N     16   6   4     2.532837915298   110.70481050   175.75217789
 C     18  16   6     2.760625681978   125.19498296   352.52699218
 C     18  16   6     2.759301719769   118.23859209   183.53686064
 H     20  18  16     2.065395811512   110.30762346   100.20007152
 H     20  18  16     2.049676312560   109.85237372   339.51574875
 H     20  18  16     2.058788700087   108.66399801   219.40823055
 H     19  18  16     2.059495888337   108.69448883   134.36650260
 H     19  18  16     2.044659245462   111.08923903    14.27357354
 H     19  18  16     2.064591043729   109.54790377   252.95932287
 H      3   2   1     2.044586848431   120.87296176   183.68763509
 H      1   2   3     2.043896841958   121.20793364   174.19380688
 H      2   1   3     2.041646677145   120.40255217   182.82184177
 H      8   7   5     2.044195448801   119.44483510   180.97416377
 H      9   8   7     2.045689079657   120.11364949   185.25194677
 H     13  12  10     2.038967948779   115.45886964   165.84735288
 H     14  13  12     2.043378886797   118.49751635   181.99541723
 H     15  14  13     2.040365400023   121.92288236   186.92004783
 P     12  10   5     3.270576273788   120.65740055    56.56063857
 O     35  12  10     2.778232581242   112.28421917   336.34013601
 O     35  12  10     2.971906318837    98.76775726   209.44510851
 O     35  12  10     2.991690515126   106.64718037   103.37238615
 C     37  35  12     2.778280807729   121.69432201   191.55815355
 C     38  35  12     2.771532021115   123.32892417   257.95890121
 C     39  37  35     2.851080175571   108.33125388   154.47898180
 H     39  37  35     2.057977491453   108.69751140    33.24044705
 H     39  37  35     2.057869661321   106.92199087   275.33336562
 H     41  39  37     2.060817992464   110.98663510   297.73292622
 H     41  39  37     2.062875828104   108.86204507   178.46477078
 H     41  39  37     2.060422695405   111.10095084    59.23249190
 C     40  38  35     2.854557113107   110.41240271   111.43716982
 H     40  38  35     2.056547979443   108.69640582   348.11640560
 H     40  38  35     2.057148076409   104.86660272   231.77910851
 H     47  40  38     2.061061832155   111.01053540    57.27140981
 H     47  40  38     2.060704984587   111.29381607   295.74787236
 H     47  40  38     2.063711526108   108.87071625   176.40255320

---------------------
BASIS SET INFORMATION
---------------------
There are 5 groups of distinct atoms

 Group   1 Type C   : 11s6p2d contracted to 5s3p2d pattern {62111/411/11}
 Group   2 Type O   : 11s6p2d contracted to 5s3p2d pattern {62111/411/11}
 Group   3 Type N   : 11s6p2d contracted to 5s3p2d pattern {62111/411/11}
 Group   4 Type H   : 5s1p contracted to 3s1p pattern {311/1}
 Group   5 Type P   : 14s9p3d contracted to 5s5p2d pattern {73211/51111/21}

Atom   0C    basis set group =>   1
Atom   1C    basis set group =>   1
Atom   2C    basis set group =>   1
Atom   3C    basis set group =>   1
Atom   4C    basis set group =>   1
Atom   5O    basis set group =>   2
Atom   6C    basis set group =>   1
Atom   7C    basis set group =>   1
Atom   8C    basis set group =>   1
Atom   9C    basis set group =>   1
Atom  10C    basis set group =>   1
Atom  11N    basis set group =>   3
Atom  12C    basis set group =>   1
Atom  13C    basis set group =>   1
Atom  14C    basis set group =>   1
Atom  15C    basis set group =>   1
Atom  16O    basis set group =>   2
Atom  17N    basis set group =>   3
Atom  18C    basis set group =>   1
Atom  19C    basis set group =>   1
Atom  20H    basis set group =>   4
Atom  21H    basis set group =>   4
Atom  22H    basis set group =>   4
Atom  23H    basis set group =>   4
Atom  24H    basis set group =>   4
Atom  25H    basis set group =>   4
Atom  26H    basis set group =>   4
Atom  27H    basis set group =>   4
Atom  28H    basis set group =>   4
Atom  29H    basis set group =>   4
Atom  30H    basis set group =>   4
Atom  31H    basis set group =>   4
Atom  32H    basis set group =>   4
Atom  33H    basis set group =>   4
Atom  34P    basis set group =>   5
Atom  35O    basis set group =>   2
Atom  36O    basis set group =>   2
Atom  37O    basis set group =>   2
Atom  38C    basis set group =>   1
Atom  39C    basis set group =>   1
Atom  40C    basis set group =>   1
Atom  41H    basis set group =>   4
Atom  42H    basis set group =>   4
Atom  43H    basis set group =>   4
Atom  44H    basis set group =>   4
Atom  45H    basis set group =>   4
Atom  46C    basis set group =>   1
Atom  47H    basis set group =>   4
Atom  48H    basis set group =>   4
Atom  49H    basis set group =>   4
Atom  50H    basis set group =>   4
Atom  51H    basis set group =>   4
---------------------------------
AUXILIARY/J BASIS SET INFORMATION
---------------------------------
There are 5 groups of distinct atoms

 Group   1 Type C   : 12s5p4d2f1g contracted to 6s4p3d1f1g pattern {711111/2111/211/2/1}
 Group   2 Type O   : 12s5p4d2f1g contracted to 6s4p3d1f1g pattern {711111/2111/211/2/1}
 Group   3 Type N   : 12s5p4d2f1g contracted to 6s4p3d1f1g pattern {711111/2111/211/2/1}
 Group   4 Type H   : 5s2p1d contracted to 3s1p1d pattern {311/2/1}
 Group   5 Type P   : 14s5p5d2f1g contracted to 8s4p3d1f1g pattern {71111111/2111/311/2/1}

Atom   0C    basis set group =>   1
Atom   1C    basis set group =>   1
Atom   2C    basis set group =>   1
Atom   3C    basis set group =>   1
Atom   4C    basis set group =>   1
Atom   5O    basis set group =>   2
Atom   6C    basis set group =>   1
Atom   7C    basis set group =>   1
Atom   8C    basis set group =>   1
Atom   9C    basis set group =>   1
Atom  10C    basis set group =>   1
Atom  11N    basis set group =>   3
Atom  12C    basis set group =>   1
Atom  13C    basis set group =>   1
Atom  14C    basis set group =>   1
Atom  15C    basis set group =>   1
Atom  16O    basis set group =>   2
Atom  17N    basis set group =>   3
Atom  18C    basis set group =>   1
Atom  19C    basis set group =>   1
Atom  20H    basis set group =>   4
Atom  21H    basis set group =>   4
Atom  22H    basis set group =>   4
Atom  23H    basis set group =>   4
Atom  24H    basis set group =>   4
Atom  25H    basis set group =>   4
Atom  26H    basis set group =>   4
Atom  27H    basis set group =>   4
Atom  28H    basis set group =>   4
Atom  29H    basis set group =>   4
Atom  30H    basis set group =>   4
Atom  31H    basis set group =>   4
Atom  32H    basis set group =>   4
Atom  33H    basis set group =>   4
Atom  34P    basis set group =>   5
Atom  35O    basis set group =>   2
Atom  36O    basis set group =>   2
Atom  37O    basis set group =>   2
Atom  38C    basis set group =>   1
Atom  39C    basis set group =>   1
Atom  40C    basis set group =>   1
Atom  41H    basis set group =>   4
Atom  42H    basis set group =>   4
Atom  43H    basis set group =>   4
Atom  44H    basis set group =>   4
Atom  45H    basis set group =>   4
Atom  46C    basis set group =>   1
Atom  47H    basis set group =>   4
Atom  48H    basis set group =>   4
Atom  49H    basis set group =>   4
Atom  50H    basis set group =>   4
Atom  51H    basis set group =>   4
------------------------------------------------------------------------------
                             ORCA STARTUP CALCULATIONS
                           -- RI-GTO INTEGRALS CHOSEN --
------------------------------------------------------------------------------
------------------------------------------------------------------------------
                   ___                                                        
                  /   \      - P O W E R E D   B Y -                         
                 /     \                                                     
                 |  |  |   _    _      __       _____    __    __             
                 |  |  |  | |  | |    /  \     |  _  \  |  |  /  |          
                  \  \/   | |  | |   /    \    | | | |  |  | /  /          
                 / \  \   | |__| |  /  /\  \   | |_| |  |  |/  /          
                |  |  |   |  __  | /  /__\  \  |    /   |      \           
                |  |  |   | |  | | |   __   |  |    \   |  |\   \          
                \     /   | |  | | |  |  |  |  | |\  \  |  | \   \       
                 \___/    |_|  |_| |__|  |__|  |_| \__\ |__|  \__/        
                                                                              
                      - O R C A' S   B I G   F R I E N D -                    
                                      &                                       
                       - I N T E G R A L  F E E D E R -                       
                                                                              
 v1 FN, 2020, v2 2021, v3 2022-2024                                           
------------------------------------------------------------------------------


----------------------
SHARK INTEGRAL PACKAGE
----------------------

Number of atoms                             ...     52
Number of basis functions                   ...    822
Number of shells                            ...    378
Maximum angular momentum                    ...      2
Integral batch strategy                     ... SHARK/LIBINT Hybrid
RI-J (if used) integral strategy            ... SPLIT-RIJ (Revised 2003 algorithm where possible)
Printlevel                                  ...      1
Contraction scheme used                     ... SEGMENTED contraction
Prescreening option                         ... SCHWARTZ
   Thresh                                   ... 2.500e-11
   Tcut                                     ... 2.500e-12
   Tpresel                                  ... 2.500e-12 
Coulomb Range Separation                    ... NOT USED
Exchange Range Separation                   ... NOT USED
Multipole approximations                    ... NOT USED
Finite Nucleus Model                        ... NOT USED
CABS basis                                  ... NOT available
Auxiliary Coulomb fitting basis             ... AVAILABLE
   # of basis functions in Aux-J            ...   1638
   # of shells in Aux-J                     ...    542
   Maximum angular momentum in Aux-J        ...      4
Auxiliary J/K fitting basis                 ... NOT available
Auxiliary Correlation fitting basis         ... NOT available
Auxiliary 'external' fitting basis          ... NOT available

Checking pre-screening integrals            ... done (  0.0 sec) Dimension = 378
Check shell pair data                       ... done (  0.0 sec)
Shell pair information
Shell pair cut-off parameter TPreSel        ...   2.5e-12
Total number of shell pairs                 ...     71631
Shell pairs after pre-screening             ...     50052
Total number of primitive shell pairs       ...    234288
Primitive shell pairs kept                  ...    103686
          la=0 lb=0:  14984 shell pairs
          la=1 lb=0:  16705 shell pairs
          la=1 lb=1:   4688 shell pairs
          la=2 lb=0:   7990 shell pairs
          la=2 lb=1:   4539 shell pairs
          la=2 lb=2:   1146 shell pairs

Calculating one electron integrals          ... done (  0.2 sec)
Calculating RI/J V-Matrix + Cholesky decomp.... done (  0.4 sec)
Calculating Nuclear repulsion               ... done (  0.0 sec) ENN=   3142.747804911757 Eh

Diagonalization of the overlap matrix:
Smallest eigenvalue                        ... 4.745e-06
Time for diagonalization                   ...    0.068 sec
Threshold for overlap eigenvalues          ... 1.000e-07
Number of eigenvalues below threshold      ... 0
Time for construction of square roots      ...    0.087 sec
Total time needed                          ...    0.165 sec

-------------------
DFT GRID GENERATION
-------------------

General Integration Accuracy     IntAcc      ... 4.388
Radial Grid Type                 RadialGrid  ... OptM3 with GC (2021)
Angular Grid (max. ang.)         AngularGrid ... 4 (Lebedev-302)
Angular grid pruning method      GridPruning ... 4 (adaptive)
Weight generation scheme         WeightScheme... mBecke (2022)
Basis function cutoff            BFCut       ... 1.0000e-11
Integration weight cutoff        WCut        ... 1.0000e-14
Partially contracted basis set               ... off
Rotationally invariant grid construction     ... off
Angular grids for H and He will be reduced by one unit

Total number of grid points                  ...   244352
Total number of batches                      ...     3840
Average number of points per batch           ...       63
Average number of grid points per atom       ...     4699

--------------------
COSX GRID GENERATION
--------------------

GRIDX 1
-------
General Integration Accuracy     IntAcc      ... 3.816
Radial Grid Type                 RadialGrid  ... OptM3 with GC (2021)
Angular Grid (max. ang.)         AngularGrid ... 1 (Lebedev-50)
Angular grid pruning method      GridPruning ... 4 (adaptive)
Weight generation scheme         WeightScheme... mBecke (2022)
Basis function cutoff            BFCut       ... 1.0000e-11
Integration weight cutoff        WCut        ... 1.0000e-14
Partially contracted basis set               ... on
Rotationally invariant grid construction     ... off
Angular grids for H and He will be reduced by one unit

Total number of grid points                  ...    31972
Total number of batches                      ...      277
Average number of points per batch           ...      115
Average number of grid points per atom       ...      615
UseSFitting                                  ... on

GRIDX 2
-------
General Integration Accuracy     IntAcc      ... 4.020
Radial Grid Type                 RadialGrid  ... OptM3 with GC (2021)
Angular Grid (max. ang.)         AngularGrid ... 2 (Lebedev-110)
Angular grid pruning method      GridPruning ... 4 (adaptive)
Weight generation scheme         WeightScheme... mBecke (2022)
Basis function cutoff            BFCut       ... 1.0000e-11
Integration weight cutoff        WCut        ... 1.0000e-14
Partially contracted basis set               ... on
Rotationally invariant grid construction     ... off
Angular grids for H and He will be reduced by one unit

Total number of grid points                  ...    66416
Total number of batches                      ...      544
Average number of points per batch           ...      122
Average number of grid points per atom       ...     1277
UseSFitting                                  ... on

GRIDX 3
-------
General Integration Accuracy     IntAcc      ... 4.338
Radial Grid Type                 RadialGrid  ... OptM3 with GC (2021)
Angular Grid (max. ang.)         AngularGrid ... 3 (Lebedev-194)
Angular grid pruning method      GridPruning ... 4 (adaptive)
Weight generation scheme         WeightScheme... mBecke (2022)
Basis function cutoff            BFCut       ... 1.0000e-11
Integration weight cutoff        WCut        ... 1.0000e-14
Partially contracted basis set               ... on
Rotationally invariant grid construction     ... off
Angular grids for H and He will be reduced by one unit

Total number of grid points                  ...   145103
Total number of batches                      ...     1158
Average number of points per batch           ...      125
Average number of grid points per atom       ...     2790
UseSFitting                                  ... on
Initializing property integral containers    ... done (  0.0 sec)

SHARK setup successfully completed in   9.8 seconds

Maximum memory used throughout the entire STARTUP-calculation: 175.4 MB
-------------------------------------------------------------------------------
                                 ORCA GUESS
                   Start orbitals & Density for SCF / CASSCF
-------------------------------------------------------------------------------

------------
SCF SETTINGS
------------
Hamiltonian:
 Density Functional     Method          .... DFT(GTOs)
 Exchange Functional    Exchange        .... B88
   X-Alpha parameter    XAlpha          ....  0.666667
   Becke's b parameter  XBeta           ....  0.004200
 Correlation Functional Correlation     .... LYP
 LDA part of GGA corr.  LDAOpt          .... VWN-3
 Gradients option       PostSCFGGA      .... off
 Hybrid DFT is turned on
   Fraction HF Exchange ScalHFX         ....  0.200000
   Scaling of DF-GGA-X  ScalDFX         ....  0.720000
   Scaling of DF-GGA-C  ScalDFC         ....  0.810000
   Scaling of DF-LDA-C  ScalLDAC        ....  1.000000
   Perturbative correction              ....  0.000000
   NL short-range parameter             ....  4.800000
 RI-approximation to the Coulomb term is turned on
   Number of AuxJ basis functions       .... 1638
   RIJ-COSX (HFX calculated with COS-X)).... on


General Settings:
 Integral files         IntName         .... hbq-dcp-es
 Hartree-Fock type      HFTyp           .... RHF
 Total Charge           Charge          ....    1
 Multiplicity           Mult            ....    1
 Number of Electrons    NEL             ....  212
 Basis Dimension        Dim             ....  822
 Nuclear Repulsion      ENuc            ....   3142.7478049118 Eh

Convergence Acceleration:
 AO-DIIS                CNVDIIS         .... on
   Start iteration      DIISMaxIt       ....    12
   Startup error        DIISStart       ....  0.200000
   # of expansion vecs  DIISMaxEq       ....     5
   Bias factor          DIISBfac        ....   1.050
   Max. coefficient     DIISMaxC        ....  10.000
 MO-DIIS                CNVKDIIS        .... off
 Trust-Rad. Augm. Hess. CNVTRAH         .... auto
   Auto Start mean grad. ratio tolernc. ....  1.125000
   Auto Start start iteration           ....    50
   Auto Start num. interpolation iter.  ....    10
   Max. Number of Micro iterations      ....    24
   Max. Number of Macro iterations      .... Maxiter - #DIIS iter
   Number of Davidson start vectors     ....     2
   Converg. threshold    (grad. norm)   ....   1.000e-05
   Grad. Scal. Fac. for Micro threshold ....   0.100
   Minimum threshold for Micro iter.    ....   1.000e-02
   NR start threshold (gradient norm)   ....   1.000e-04
   Initial trust radius                 ....   0.400
   Minimum AH scaling param. (alpha)    ....   1.000
   Maximum AH scaling param. (alpha)    .... 1000.000
   Quad. conv. algorithm                .... NR
   White noise on init. David. guess    .... on
   Maximum white noise                  ....   0.010
   Pseudo random numbers                .... off
   Inactive MOs                         .... canonical
   Orbital update algorithm             .... Taylor
   Preconditioner                       .... Diag
   Full preconditioner red. dimension   ....   250
 SOSCF                  CNVSOSCF        .... on
   Start iteration      SOSCFMaxIt      ....   150
   Startup grad/error   SOSCFStart      ....  0.003300
   Hessian update       SOSCFHessUp     .... L-BFGS
 Level Shifting         CNVShift        .... on
   Level shift para.    LevelShift      ....    0.2500
   Turn off err/grad.   ShiftErr        ....    0.0010
 Zerner damping         CNVZerner       .... off
 Static damping         CNVDamp         .... on
   Fraction old density DampFac         ....    0.7000
   Max. Damping (<1)    DampMax         ....    0.9800
   Min. Damping (>=0)   DampMin         ....    0.0000
   Turn off err/grad.   DampErr         ....    0.1000

SCF Procedure:
 Maximum # iterations   MaxIter         ....   125
 SCF integral mode      SCFMode         .... Direct
   Integral package                     .... SHARK and LIBINT hybrid scheme
 Reset frequency        DirectResetFreq ....    20
 Integral Threshold     Thresh          ....  2.500e-11 Eh
 Primitive CutOff       TCut            ....  2.500e-12 Eh

Convergence Tolerance:
 Convergence Check Mode ConvCheckMode   .... Total+1el-Energy
 Convergence forced     ConvForced      .... 1
 Energy Change          TolE            ....  1.000e-08 Eh
 1-El. energy change                    ....  1.000e-05 Eh
 Orbital Gradient       TolG            ....  1.000e-05
 Orbital Rotation angle TolX            ....  1.000e-05
 DIIS Error             TolErr          ....  5.000e-07

------------------------------
INITIAL GUESS: MODEL POTENTIAL
------------------------------
Loading Hartree-Fock densities                     ... done
Calculating cut-offs                               ... done
Initializing the effective Hamiltonian             ... done
Setting up the integral package (SHARK)            ... done
Starting the Coulomb interaction                   ... done (   2.3 sec)
Making the grid                                    ... done (   0.8 sec)
Mapping shells                                     ... done
Starting the XC term evaluation                    ... done (   1.0 sec)
  promolecular density results
     # of electrons  =    212.981725835
     EX              =   -186.944231017
     EC              =     -7.403350758
     EX+EC           =   -194.347581775
Transforming the Hamiltonian                       ... done (   0.0 sec)
Diagonalizing the Hamiltonian                      ... done (   0.1 sec)
Back transforming the eigenvectors                 ... done (   0.1 sec)
Now organizing SCF variables                       ... done
                      ------------------
                      INITIAL GUESS DONE (   4.6 sec)
                      ------------------
             **** ENERGY FILE WAS UPDATED (hbq-dcp-es.en.tmp) ****
Finished Guess after   5.8 sec
Maximum memory used throughout the entire GUESS-calculation: 127.7 MB

-------------------------------------------------------------------------------------------
                                      ORCA LEAN-SCF
                              memory conserving SCF solver
-------------------------------------------------------------------------------------------

--------------------
CPCM SOLVATION MODEL
--------------------
CPCM parameters:
  Epsilon                                         ...      80.1510
  Refrac                                          ...       1.3328
  Rsolv                                           ...       1.3000
  Surface type                                    ... GAUSSIAN VDW
  Discretization scheme                           ... Constant charge density
    Threshold for H atoms                         ...       5.0000 (charges/Ang^2)
    Threshold for non-H atoms                     ...       5.0000 (charges/Ang^2)
  Epsilon function type                           ...         CPCM
Solvent:                                          ... WATER
Radii:
  Scheme                                          ... Element-dependent radii
  Radius for C  used is    3.8550 Bohr (=   2.0400 Ang.)
  Radius for O  used is    3.4469 Bohr (=   1.8240 Ang.)
  Radius for N  used is    3.5149 Bohr (=   1.8600 Ang.)
  Radius for H  used is    2.4944 Bohr (=   1.3200 Ang.)
  Radius for P  used is    4.0818 Bohr (=   2.1600 Ang.)
Calculating surface                               ...        done! (  0.0s)
Cavity surface points                             ...         4389
Cavity Volume                                     ...    3099.5297
Cavity Surface-area                               ...    1536.3603
Calculating surface distance matrix               ...        done! (  0.1s)
Performing Cholesky decomposition & store         ...        done! (  1.9s)
Overall time for CPCM initialization              ...                 1.9s

----------------------------------------D-I-I-S--------------------------------------------
Iteration    Energy (Eh)           Delta-E    RMSDP     MaxDP     DIISErr   Damp  Time(sec)
-------------------------------------------------------------------------------------------
               ***  Starting incremental Fock matrix formation  ***
    1    -1603.1779041213217170     0.00e+00  1.46e-03  1.40e-01  3.77e-01  0.700  66.6
Warning: op=0 Small HOMO/LUMO gap (   0.074) - skipping pre-diagonalization
         Will do a full diagonalization
    2    -1603.5660407351556387    -3.88e-01  1.04e-03  4.96e-02  1.31e-01  0.700  35.5
                               ***Turning on AO-DIIS***
    3    -1603.7109938948237868    -1.45e-01  5.30e-04  3.83e-02  3.75e-02  0.700  33.0
    4    -1603.7990124411412580    -8.80e-02  9.96e-04  1.14e-01  1.85e-02  0.000  30.9
    5    -1603.9945943613315649    -1.96e-01  2.12e-04  1.07e-02  6.03e-03  0.000  32.0
                              *** Initializing SOSCF ***
---------------------------------------S-O-S-C-F--------------------------------------
Iteration    Energy (Eh)           Delta-E    RMSDP     MaxDP     MaxGrad    Time(sec)
--------------------------------------------------------------------------------------
    6    -1603.9955873444610006    -9.93e-04  6.37e-05  5.89e-03  1.57e-03    29.2
               *** Restarting incremental Fock matrix formation ***
    7    -1603.9956780702100332    -9.07e-05  8.07e-05  6.75e-03  4.65e-04    65.8
    8    -1603.9956559093038777     2.22e-05  2.75e-05  1.34e-03  9.53e-04    44.0
    9    -1603.9957028099629497    -4.69e-05  8.91e-06  4.94e-04  3.60e-05    39.3
   10    -1603.9957026901370227     1.20e-07  2.50e-06  2.41e-04  5.24e-05    34.6
   11    -1603.9957031490380359    -4.59e-07  3.42e-06  2.79e-04  8.72e-06    27.9
   12    -1603.9957031307735633     1.83e-08  2.02e-06  2.65e-04  1.21e-05    26.9
   13    -1603.9957031486123924    -1.78e-08  3.30e-06  3.22e-04  4.40e-06    23.2
   14    -1603.9957031890712642    -4.05e-08  2.13e-06  2.00e-04  5.61e-06    21.7
   15    -1603.9957032015367986    -1.25e-08  2.60e-06  2.91e-04  5.10e-07    19.1
                  *** Gradient check signals convergence ***

               *****************************************************
               *                     SUCCESS                       *
               *           SCF CONVERGED AFTER  15 CYCLES          *
               *****************************************************

Recomputing exchange energy using gridx3       ... done (  101.273 sec)
Old exchange energy                            :    -37.861834093 Eh
New exchange energy                            :    -37.861848648 Eh
Exchange energy change after final integration :     -0.000014555 Eh
Total energy after final integration           :  -1603.995717757 Eh
             **** ENERGY FILE WAS UPDATED (hbq-dcp-es.en.tmp) ****

----------------
TOTAL SCF ENERGY
----------------

Total Energy       :      -1603.99571775655977 Eh          -43646.94245 eV

Components:
Nuclear Repulsion  :       3142.74780491175670 Eh           85518.51545 eV
Electronic Energy  :      -4746.65994056687305 Eh         -129163.18351 eV
One Electron Energy:      -8419.89065834275607 Eh         -229116.87289 eV
Two Electron Energy:       3673.23071777588302 Eh           99953.68938 eV
CPCM Dielectric    :         -0.08356754642016 Eh              -2.27399 eV

Virial components:
Potential Energy   :      -3200.96582625183964 Eh          -87102.70835 eV
Kinetic Energy     :       1596.97010849527987 Eh           43455.76590 eV
Virial Ratio       :          2.00439933673392

DFT components:
N(Alpha)           :      106.000101268948 electrons
N(Beta)            :      106.000101268948 electrons
N(Total)           :      212.000202537896 electrons
E(X)               :     -150.492040526750 Eh       
E(C)               :       -9.462171551952 Eh       
E(XC)              :     -159.954212078702 Eh       

CPCM Solvation Model Properties:
Surface-charge          :         -1.03442550874505
Corrected charge        :         -1.00000000000000
Outlying charge corr.   :          0.00005874904384 Eh               0.00160 eV
Free-energy (cav+disp)  :  This term is not implemented in the current solvation scheme

---------------
SCF CONVERGENCE
---------------

  Last Energy change         ...    1.2466e-08  Tolerance :   1.0000e-08
  Last MAX-Density change    ...    2.9112e-04  Tolerance :   1.0000e-07
  Last RMS-Density change    ...    2.5990e-06  Tolerance :   5.0000e-09
  Last DIIS Error            ...    1.5664e-03  Tolerance :   5.0000e-07
  Last Orbital Gradient      ...    5.1005e-07  Tolerance :   1.0000e-05
  Last Orbital Rotation      ...    2.4195e-06  Tolerance :   1.0000e-05


----------------
ORBITAL ENERGIES
----------------

  NO   OCC          E(Eh)            E(eV) 
   0   2.0000     -77.217992     -2101.2084 
   1   2.0000     -19.189510      -522.1731 
   2   2.0000     -19.181525      -521.9558 
   3   2.0000     -19.181344      -521.9509 
   4   2.0000     -19.117320      -520.2087 
   5   2.0000     -19.117093      -520.2025 
   6   2.0000     -14.429366      -392.6430 
   7   2.0000     -14.365166      -390.8960 
   8   2.0000     -10.335471      -281.2425 
   9   2.0000     -10.282533      -279.8019 
  10   2.0000     -10.278296      -279.6866 
  11   2.0000     -10.267827      -279.4018 
  12   2.0000     -10.248119      -278.8655 
  13   2.0000     -10.242929      -278.7243 
  14   2.0000     -10.240202      -278.6501 
  15   2.0000     -10.233559      -278.4693 
  16   2.0000     -10.224118      -278.2124 
  17   2.0000     -10.222026      -278.1555 
  18   2.0000     -10.218050      -278.0473 
  19   2.0000     -10.204441      -277.6769 
  20   2.0000     -10.202783      -277.6318 
  21   2.0000     -10.202610      -277.6271 
  22   2.0000     -10.201972      -277.6098 
  23   2.0000     -10.198115      -277.5048 
  24   2.0000     -10.194543      -277.4076 
  25   2.0000     -10.194370      -277.4029 
  26   2.0000     -10.168820      -276.7077 
  27   2.0000     -10.167698      -276.6771 
  28   2.0000      -6.685133      -181.9117 
  29   2.0000      -4.848044      -131.9220 
  30   2.0000      -4.847217      -131.8995 
  31   2.0000      -4.845768      -131.8601 
  32   2.0000      -1.131577       -30.7918 
  33   2.0000      -1.112423       -30.2706 
  34   2.0000      -1.056438       -28.7471 
  35   2.0000      -1.045605       -28.4524 
  36   2.0000      -1.022286       -27.8178 
  37   2.0000      -0.995811       -27.0974 
  38   2.0000      -0.960321       -26.1317 
  39   2.0000      -0.908673       -24.7262 
  40   2.0000      -0.872897       -23.7527 
  41   2.0000      -0.844833       -22.9891 
  42   2.0000      -0.810838       -22.0640 
  43   2.0000      -0.788644       -21.4601 
  44   2.0000      -0.781463       -21.2647 
  45   2.0000      -0.772173       -21.0119 
  46   2.0000      -0.763402       -20.7732 
  47   2.0000      -0.728970       -19.8363 
  48   2.0000      -0.722082       -19.6489 
  49   2.0000      -0.708639       -19.2830 
  50   2.0000      -0.685082       -18.6420 
  51   2.0000      -0.672815       -18.3082 
  52   2.0000      -0.657188       -17.8830 
  53   2.0000      -0.644409       -17.5353 
  54   2.0000      -0.641242       -17.4491 
  55   2.0000      -0.608666       -16.5626 
  56   2.0000      -0.597823       -16.2676 
  57   2.0000      -0.575346       -15.6560 
  58   2.0000      -0.562831       -15.3154 
  59   2.0000      -0.549281       -14.9467 
  60   2.0000      -0.548905       -14.9365 
  61   2.0000      -0.544789       -14.8245 
  62   2.0000      -0.541448       -14.7336 
  63   2.0000      -0.514080       -13.9888 
  64   2.0000      -0.513212       -13.9652 
  65   2.0000      -0.508675       -13.8418 
  66   2.0000      -0.501233       -13.6392 
  67   2.0000      -0.495323       -13.4784 
  68   2.0000      -0.487175       -13.2567 
  69   2.0000      -0.481752       -13.1091 
  70   2.0000      -0.472406       -12.8548 
  71   2.0000      -0.468623       -12.7519 
  72   2.0000      -0.464727       -12.6459 
  73   2.0000      -0.456949       -12.4342 
  74   2.0000      -0.454661       -12.3720 
  75   2.0000      -0.450418       -12.2565 
  76   2.0000      -0.441190       -12.0054 
  77   2.0000      -0.437990       -11.9183 
  78   2.0000      -0.430761       -11.7216 
  79   2.0000      -0.422333       -11.4923 
  80   2.0000      -0.416191       -11.3251 
  81   2.0000      -0.414165       -11.2700 
  82   2.0000      -0.410805       -11.1786 
  83   2.0000      -0.407417       -11.0864 
  84   2.0000      -0.404810       -11.0154 
  85   2.0000      -0.403675       -10.9846 
  86   2.0000      -0.398498       -10.8437 
  87   2.0000      -0.393190       -10.6992 
  88   2.0000      -0.388143       -10.5619 
  89   2.0000      -0.386040       -10.5047 
  90   2.0000      -0.384764       -10.4700 
  91   2.0000      -0.377888       -10.2829 
  92   2.0000      -0.370630       -10.0854 
  93   2.0000      -0.362355        -9.8602 
  94   2.0000      -0.355799        -9.6818 
  95   2.0000      -0.349317        -9.5054 
  96   2.0000      -0.343366        -9.3435 
  97   2.0000      -0.340586        -9.2678 
  98   2.0000      -0.335311        -9.1243 
  99   2.0000      -0.328409        -8.9365 
 100   2.0000      -0.320991        -8.7346 
 101   2.0000      -0.305377        -8.3097 
 102   2.0000      -0.300043        -8.1646 
 103   2.0000      -0.275415        -7.4944 
 104   2.0000      -0.264333        -7.1929 
 105   2.0000      -0.238545        -6.4911 
 106   0.0000      -0.140108        -3.8125 
[...]
134:   3040.42   0.003221   16.28  0.000331  ( 0.013461 -0.003444  0.011726)
135:   3041.86   0.017922   90.57  0.001839  ( 0.002137 -0.016501  0.039519)
136:   3069.40   0.005193   26.24  0.000528  ( 0.014018 -0.017653 -0.004453)
137:   3074.21   0.003783   19.12  0.000384  (-0.009247  0.014373  0.009590)
138:   3103.12   0.007828   39.56  0.000787  ( 0.018919  0.020265  0.004317)
139:   3104.72   0.004092   20.68  0.000411  (-0.017148  0.001665  0.010701)
140:   3105.11   0.004620   23.35  0.000464  ( 0.011912  0.017278  0.004892)
141:   3108.84   0.000672    3.39  0.000067  ( 0.002996 -0.006939  0.003206)
142:   3110.10   0.003984   20.13  0.000400  (-0.005242  0.015089  0.012025)
143:   3114.00   0.004703   23.77  0.000471  ( 0.013420 -0.016361 -0.004851)
144:   3133.39   0.008935   45.15  0.000890  ( 0.019938  0.008422  0.020527)
145:   3134.25   0.004574   23.11  0.000455  (-0.009402 -0.018816  0.003596)
146:   3175.71   0.000926    4.68  0.000091  (-0.005829  0.006592 -0.003676)
147:   3197.49   0.000654    3.30  0.000064  (-0.004419  0.002570  0.006137)
148:   3201.00   0.000224    1.13  0.000022  (-0.003444 -0.002919  0.001193)
149:   3204.91   0.000143    0.72  0.000014  (-0.000048 -0.003656  0.000749)
150:   3210.63   0.000624    3.15  0.000061  ( 0.000192  0.005411 -0.005596)
151:   3215.57   0.000137    0.69  0.000013  ( 0.001346 -0.002771  0.001948)
152:   3222.39   0.001597    8.07  0.000155  (-0.006764 -0.007608  0.007145)
153:   3230.09   0.000172    0.87  0.000017  ( 0.000355 -0.003321  0.002328)
154:   3231.51   0.002197   11.10  0.000212  ( 0.014229 -0.000021  0.003108)
155:   3252.14   0.005905   29.84  0.000567  (-0.014216 -0.016090  0.010276)

* The epsilon (eps) is given for a Dirac delta lineshape.
** The dipole moment derivative (T) already includes vibrational overlap.

The first frequency considered to be a vibration is 8
The total number of vibrations considered is 148


--------------------------
THERMOCHEMISTRY AT 298.15K
--------------------------

Temperature         ...   298.15 K
Pressure            ...     1.00 atm
Total Mass          ...   403.39 AMU
Quasi RRHO          ...     True
Cut-Off Frequency   ...     1.00 cm^-1

Throughout the following assumptions are being made:
  (1) The electronic state is orbitally nondegenerate
  (2) There are no thermally accessible electronically excited states
  (3) Hindered rotations indicated by low frequency modes are not
      treated as such but are treated as vibrations and this may
      cause some error
  (4) All equations used are the standard statistical mechanics
      equations for an ideal gas
  (5) All vibrations are strictly harmonic

freq.      27.92  E(vib)   ...       0.55 
freq.      30.95  E(vib)   ...       0.55 
freq.      42.85  E(vib)   ...       0.53 
freq.      55.21  E(vib)   ...       0.52 
freq.      57.71  E(vib)   ...       0.51 
freq.      61.25  E(vib)   ...       0.51 
freq.      66.41  E(vib)   ...       0.50 
freq.      78.56  E(vib)   ...       0.49 
freq.      82.83  E(vib)   ...       0.48 
freq.      94.84  E(vib)   ...       0.47 
freq.     105.20  E(vib)   ...       0.45 
freq.     124.78  E(vib)   ...       0.43 
freq.     132.04  E(vib)   ...       0.42 
freq.     146.26  E(vib)   ...       0.41 
freq.     163.52  E(vib)   ...       0.39 
freq.     185.36  E(vib)   ...       0.37 
freq.     189.88  E(vib)   ...       0.36 
freq.     214.39  E(vib)   ...       0.34 
freq.     221.59  E(vib)   ...       0.33 
freq.     240.93  E(vib)   ...       0.31 
freq.     245.09  E(vib)   ...       0.31 
freq.     261.31  E(vib)   ...       0.30 
freq.     275.04  E(vib)   ...       0.28 
freq.     287.76  E(vib)   ...       0.27 
freq.     302.16  E(vib)   ...       0.26 
freq.     325.13  E(vib)   ...       0.24 
freq.     342.82  E(vib)   ...       0.23 
freq.     361.42  E(vib)   ...       0.22 
freq.     369.17  E(vib)   ...       0.21 
freq.     383.94  E(vib)   ...       0.20 
freq.     408.88  E(vib)   ...       0.19 
freq.     426.49  E(vib)   ...       0.18 
freq.     441.38  E(vib)   ...       0.17 
freq.     456.36  E(vib)   ...       0.16 
freq.     464.84  E(vib)   ...       0.16 
freq.     484.20  E(vib)   ...       0.15 
freq.     499.34  E(vib)   ...       0.14 
freq.     513.65  E(vib)   ...       0.13 
freq.     528.17  E(vib)   ...       0.13 
freq.     539.48  E(vib)   ...       0.12 
freq.     553.43  E(vib)   ...       0.12 
freq.     562.61  E(vib)   ...       0.11 
freq.     596.63  E(vib)   ...       0.10 
freq.     623.65  E(vib)   ...       0.09 
freq.     636.79  E(vib)   ...       0.09 
freq.     678.24  E(vib)   ...       0.08 
freq.     707.76  E(vib)   ...       0.07 
freq.     720.01  E(vib)   ...       0.07 
freq.     728.33  E(vib)   ...       0.06 
freq.     734.44  E(vib)   ...       0.06 
freq.     761.47  E(vib)   ...       0.06 
freq.     766.72  E(vib)   ...       0.06 
freq.     793.40  E(vib)   ...       0.05 
freq.     796.32  E(vib)   ...       0.05 
freq.     802.68  E(vib)   ...       0.05 
freq.     813.36  E(vib)   ...       0.05 
freq.     816.17  E(vib)   ...       0.05 
freq.     828.10  E(vib)   ...       0.04 
freq.     849.87  E(vib)   ...       0.04 
freq.     860.07  E(vib)   ...       0.04 
freq.     917.60  E(vib)   ...       0.03 
freq.     942.62  E(vib)   ...       0.03 
freq.     950.13  E(vib)   ...       0.03 
freq.     952.79  E(vib)   ...       0.03 
freq.     959.02  E(vib)   ...       0.03 
freq.     976.92  E(vib)   ...       0.03 
freq.     981.47  E(vib)   ...       0.02 
freq.     986.88  E(vib)   ...       0.02 
freq.     998.00  E(vib)   ...       0.02 
freq.    1004.44  E(vib)   ...       0.02 
freq.    1030.78  E(vib)   ...       0.02 
freq.    1051.58  E(vib)   ...       0.02 
freq.    1074.13  E(vib)   ...       0.02 
freq.    1085.36  E(vib)   ...       0.02 
freq.    1097.53  E(vib)   ...       0.02 
freq.    1107.44  E(vib)   ...       0.02 
freq.    1112.93  E(vib)   ...       0.01 
freq.    1116.52  E(vib)   ...       0.01 
freq.    1121.63  E(vib)   ...       0.01 
freq.    1122.93  E(vib)   ...       0.01 
freq.    1160.07  E(vib)   ...       0.01 
freq.    1170.56  E(vib)   ...       0.01 
freq.    1175.69  E(vib)   ...       0.01 
freq.    1181.02  E(vib)   ...       0.01 
freq.    1187.77  E(vib)   ...       0.01 
freq.    1197.08  E(vib)   ...       0.01 
freq.    1206.82  E(vib)   ...       0.01 
freq.    1243.69  E(vib)   ...       0.01 
freq.    1247.00  E(vib)   ...       0.01 
freq.    1268.13  E(vib)   ...       0.01 
freq.    1269.94  E(vib)   ...       0.01 
freq.    1281.13  E(vib)   ...       0.01 
freq.    1315.13  E(vib)   ...       0.01 
freq.    1318.41  E(vib)   ...       0.01 
freq.    1340.51  E(vib)   ...       0.01 
freq.    1367.43  E(vib)   ...       0.01 
freq.    1380.08  E(vib)   ...       0.01 
freq.    1393.98  E(vib)   ...       0.00 
freq.    1399.38  E(vib)   ...       0.00 
freq.    1401.66  E(vib)   ...       0.00 
freq.    1411.65  E(vib)   ...       0.00 
freq.    1416.82  E(vib)   ...       0.00 
freq.    1418.42  E(vib)   ...       0.00 
freq.    1441.36  E(vib)   ...       0.00 
freq.    1443.16  E(vib)   ...       0.00 
freq.    1455.82  E(vib)   ...       0.00 
freq.    1461.50  E(vib)   ...       0.00 
freq.    1469.44  E(vib)   ...       0.00 
freq.    1470.92  E(vib)   ...       0.00 
freq.    1474.25  E(vib)   ...       0.00 
freq.    1480.54  E(vib)   ...       0.00 
freq.    1480.66  E(vib)   ...       0.00 
freq.    1483.24  E(vib)   ...       0.00 
freq.    1488.04  E(vib)   ...       0.00 
freq.    1494.26  E(vib)   ...       0.00 
freq.    1506.82  E(vib)   ...       0.00 
freq.    1510.30  E(vib)   ...       0.00 
freq.    1514.39  E(vib)   ...       0.00 
freq.    1532.03  E(vib)   ...       0.00 
freq.    1550.97  E(vib)   ...       0.00 
freq.    1572.21  E(vib)   ...       0.00 
freq.    1590.83  E(vib)   ...       0.00 
freq.    1603.09  E(vib)   ...       0.00 
freq.    1725.18  E(vib)   ...       0.00 
freq.    3035.97  E(vib)   ...       0.00 
freq.    3036.96  E(vib)   ...       0.00 
freq.    3040.42  E(vib)   ...       0.00 
freq.    3041.86  E(vib)   ...       0.00 
freq.    3069.40  E(vib)   ...       0.00 
freq.    3074.21  E(vib)   ...       0.00 
freq.    3103.12  E(vib)   ...       0.00 
freq.    3104.72  E(vib)   ...       0.00 
freq.    3105.11  E(vib)   ...       0.00 
freq.    3108.84  E(vib)   ...       0.00 
freq.    3110.10  E(vib)   ...       0.00 
freq.    3114.00  E(vib)   ...       0.00 
freq.    3133.39  E(vib)   ...       0.00 
freq.    3134.25  E(vib)   ...       0.00 
freq.    3175.71  E(vib)   ...       0.00 
freq.    3197.49  E(vib)   ...       0.00 
freq.    3201.00  E(vib)   ...       0.00 
freq.    3204.91  E(vib)   ...       0.00 
freq.    3210.63  E(vib)   ...       0.00 
freq.    3215.57  E(vib)   ...       0.00 
freq.    3222.39  E(vib)   ...       0.00 
freq.    3230.09  E(vib)   ...       0.00 
freq.    3231.51  E(vib)   ...       0.00 
freq.    3252.14  E(vib)   ...       0.00 

------------
INNER ENERGY
------------

The inner energy is: U= E(el) + E(ZPE) + E(vib) + E(rot) + E(trans)
    E(el)   - is the total energy from the electronic structure calculation
              = E(kin-el) + E(nuc-el) + E(el-el) + E(nuc-nuc)
    E(ZPE)  - the the zero temperature vibrational energy from the frequency calculation
    E(vib)  - the the finite temperature correction to E(ZPE) due to population
              of excited vibrational states
    E(rot)  - is the rotational thermal energy
    E(trans)- is the translational thermal energy

Summary of contributions to the inner energy U:
Electronic energy                ...  -1603.91701163 Eh
Zero point energy                ...      0.41534410 Eh     260.63 kcal/mol
Thermal vibrational correction   ...      0.02390496 Eh      15.00 kcal/mol
Thermal rotational correction    ...      0.00141627 Eh       0.89 kcal/mol
Thermal translational correction ...      0.00141627 Eh       0.89 kcal/mol
-----------------------------------------------------------------------
Total thermal energy                  -1603.47493003 Eh


Summary of corrections to the electronic energy:
(perhaps to be used in another calculation)
Total thermal correction                  0.02673750 Eh      16.78 kcal/mol
Non-thermal (ZPE) correction              0.41534410 Eh     260.63 kcal/mol
-----------------------------------------------------------------------
Total correction                          0.44208160 Eh     277.41 kcal/mol


--------
ENTHALPY
--------

The enthalpy is H = U + kB*T
                kB is Boltzmann's constant
Total thermal energy              ...  -1603.47493003 Eh 
Thermal Enthalpy correction       ...      0.00094421 Eh       0.59 kcal/mol
-----------------------------------------------------------------------
Total Enthalpy                    ...  -1603.47398583 Eh


Note: Only C1 symmetry has been detected, increase convergence thresholds 
      if your molecule has a higher symmetry. Symmetry factor of 1.0 is   
      used for the rotational entropy correction. 
 

Note: Rotational entropy computed according to Herzberg 
Infrared and Raman Spectra, Chapter V,1, Van Nostrand Reinhold, 1945 
Point Group:  C1, Symmetry Number:   1  
Rotational constants in cm-1:     0.006951     0.006166     0.004620 

Vibrational entropy computed according to the QRRHO of S. Grimme
Chem.Eur.J. 2012 18 9955 using a reference frequency of 100.0 cm-1


-------
ENTROPY
-------

The entropy contributions are T*S = T*(S(el)+S(vib)+S(rot)+S(trans))
     S(el)   - electronic entropy
     S(vib)  - vibrational entropy
     S(rot)  - rotational entropy
     S(trans)- translational entropy
The entropies will be listed as multiplied by the temperature to get
units of energy

Electronic entropy                ...      0.00000000 Eh      0.00 kcal/mol
Vibrational entropy               ...      0.04244849 Eh     26.64 kcal/mol
Rotational entropy                ...      0.01679754 Eh     10.54 kcal/mol
Translational entropy             ...      0.02084658 Eh     13.08 kcal/mol
-----------------------------------------------------------------------
Final entropy term                ...      0.08009261 Eh     50.26 kcal/mol

In case the symmetry of your molecule has not been determined correctly
or in case you have a reason to use a different symmetry number we print 
out the resulting rotational entropy values for sn=1,12:

 non-linear molecules -----------------------------------
|  sn= 1 | S(rot)=       0.01679754 Eh     10.54 kcal/mol|
|  sn= 2 | S(rot)=       0.01614308 Eh     10.13 kcal/mol|
|  sn= 3 | S(rot)=       0.01576025 Eh      9.89 kcal/mol|
|  sn= 4 | S(rot)=       0.01548863 Eh      9.72 kcal/mol|
|  sn= 5 | S(rot)=       0.01527794 Eh      9.59 kcal/mol|
|  sn= 6 | S(rot)=       0.01510579 Eh      9.48 kcal/mol|
|  sn= 7 | S(rot)=       0.01496025 Eh      9.39 kcal/mol|
|  sn= 8 | S(rot)=       0.01483417 Eh      9.31 kcal/mol|
|  sn= 9 | S(rot)=       0.01472296 Eh      9.24 kcal/mol|
|  sn=10 | S(rot)=       0.01462348 Eh      9.18 kcal/mol|
|  sn=11 | S(rot)=       0.01453349 Eh      9.12 kcal/mol|
|  sn=12 | S(rot)=       0.01445134 Eh      9.07 kcal/mol|
 linear molecules ---------------------------------------
|  Dinfh | S(rot)=       0.01040308 Eh      6.53 kcal/mol|
|  Cinfv | S(rot)=       0.01105754 Eh      6.94 kcal/mol|
 --------------------------------------------------------


-------------------
GIBBS FREE ENERGY
-------------------

The Gibbs free energy is G = H - T*S

Total enthalpy                    ...  -1603.47398583 Eh 
Total entropy correction          ...     -0.08009261 Eh    -50.26 kcal/mol
-----------------------------------------------------------------------
Final Gibbs free energy         ...  -1603.55407844 Eh

For completeness - the Gibbs free energy minus the electronic energy
G-E(el)                           ...      0.36293319 Eh    227.74 kcal/mol



--------------------------------
SUGGESTED CITATIONS FOR THIS RUN
--------------------------------

Below you find a list of papers that are relevant to this ORCA run
We neither can nor want to force you to cite these papers, but we appreciate if you do
You receive ORCA, which is the product of decades of hard work by many enthusiastic individuals, for free
The only thing we kindly ask in return is that you cite our papers,
We deeply appreciate it, if you show your appreciation for ORCA by not just citing the generic ORCA reference.

Please note that relegating all ORCA citations to the supporting information does *not* help us.
SI sections are not indexed - citations you put there will not count into any citation statistics
But we need these citations in order to attract the funding resources that allow us to do what we are doing

Therefore, if you are a happy ORCA user, please consider citing a few of the papers listed below in the main body of your paper

In addition to the list printed below, the program has created the file hbq-dcp-es.bibtex that contains the list in bibtex format
You can import this file easily into all common literature databanks and citation aid programs


List of essential papers. We consider these as the minimum necessary citations

  1. Neese,F.
     Software update: the ORCA program system, version 5.0
     WIRES Comput. Molec. Sci., 2022 12(1)e1606
     doi.org/10.1002/wcms.1606

List of papers to cite with high priority. The work reported in these papers was absolutely
necessary for this run to complete.
Our perspective: the developers of density functionals and basis sets usually get cited in chemistry papers
Good! But without the algorithms to do something with them, the functionals or basis sets would not do anything.
Hence, in our opinion, the algorithm design and method developments papers are equally worthy of getting cited

  1. Neese,F.; Olbrich,G.
     Efficient use of the resolution of the identity approximation in time-dependent density functional calculations with hybrid density functionals
     Chem. Phys. Lett., 2002 362 170-178
     doi.org/10.1016/s0009-2614(02)01053-9
  2. Neese,F.
     An improvement of the resolution of the identity approximation for the formation of the Coulomb matrix
     J. Comp. Chem., 2003 24(14)1740-1747
     doi.org/10.1002/jcc.10318
  3. Neese,F.; Wennmohs,F.; Hansen,A.; Becker,U.
     Efficient, approximate and parallel Hartree-Fock and hybrid DFT calculations. A 'chain-of-spheres' algorithm for the Hartree-Fock exchange
     Chem. Phys., 2009 356(1-3)98-109
     doi.org/10.1016/j.chemphys.2008.10.036
  4. Petrenko,T.; Kossmann,S.; Neese,F.
     Efficient time-dependent density functional theory approximations for hybrid density functionals: Analytical gradients and parallelization
     J. Chem. Phys., 2011 134 054116
     doi.org/10.1063/1.3533441
  5. Bykov,D.; Petrenko,T.; Izsak,R.; Kossmann,S.; Becker,U.; Valeev,E.; Neese,F.
     Efficient implementation of the analytic second derivatives of Hartree-Fock and hybrid DFT energies: a detailed analysis of different approximations
     Molec. Phys., 2015 113 1961-1977
     doi.org/10.1080/00268976.2015.1025114
  6. Garcia-Rates,M.; Neese,F.
     Effect of the Solute Cavity on the Solvation Energy and its Derivatives within the Framework of the Gaussian Charge Scheme
     J. Comput. Chem., 2020 41 922-939
     doi.org/10.1002/jcc.26139
  7. Helmich-Paris,B.; de Souza,B.; Neese,F.; Izsák,R.
     An improved chain of spheres for exchange algorithm
     J. Chem. Phys., 2021 155 104109
     doi.org/doi: 10.1063/5.0058766.
  8. Neese,F.
     The SHARK Integral Generation and Digestion System
     J. Comp. Chem., 2022  1-16
     doi.org/10.1002/jcc.26942

List of suggested additional citations. These are papers that are important in the 'surrounding' of 
of this run, or papers that preceded the highly important papers. If you like your results we are grateful for a citation.

  1. Izsak,R.; Neese,F.
     An overlap fitted chain of spheres exchange method
     J. Chem. Phys., 2011 135 144105
     doi.org/10.1063/1.3646921
  2. Izsak,R.; Hansen,A.; Neese,F.
     The resolution of identity and chain of spheres approximations for the LPNO-CCSD singles Fock term
     Molec. Phys., 2012 110 2413-2417
     doi.org/10.1080/00268976.2012.687466
  3. Neese,F.
     The ORCA program system
     WIRES Comput. Molec. Sci., 2012 2(1)73-78
     doi.org/10.1002/wcms.81
  4. Izsak,R.; Neese,F.; Klopper,W.
     Robust fitting techniques in the chain of spheres approximation to the Fock exchange: The role of the complementary space
     J. Chem. Phys., 2013 139 
     doi.org/10.1063/1.4819264
  5. Neese,F.
     Software update: the ORCA program system, version 4.0
     WIRES Comput. Molec. Sci., 2018 8(1)1-6
     doi.org/10.1002/wcms.1327
  6. Neese,F.; Wennmohs,F.; Becker,U.; Riplinger,C.
     The ORCA quantum chemistry program package
     J. Chem. Phys., 2020 152 Art. No. L224108
     doi.org/10.1063/5.0004608

List of optional additional citations

  1. Neese,F.
     Approximate second-order SCF convergence for spin unrestricted wavefunctions
     Chem. Phys. Lett., 2000 325(1-3)93-98
     doi.org/10.1016/s0009-2614(00)00662-x

Timings for individual modules:

Sum of individual times          ...   490853.029 sec (=8180.884 min)
Startup calculation              ...      291.930 sec (=   4.866 min)   0.1 %
SCF iterations                   ...     8984.969 sec (= 149.749 min)   1.8 %
Property integrals               ...       26.326 sec (=   0.439 min)   0.0 %
Property calculations            ...        0.172 sec (=   0.003 min)   0.0 %
CIS module                       ...    29322.033 sec (= 488.701 min)   6.0 %
Geometry relaxation              ...        0.832 sec (=   0.014 min)   0.0 %
Numerical frequency calculation  ...   452226.767 sec (=7537.113 min)  92.1 %
                             ****ORCA TERMINATED NORMALLY****
TOTAL RUN TIME: 5 days 15 hours 59 minutes 16 seconds 354 msec
