
                                 *****************
                                 * O   R   C   A *
                                 *****************

                                            #,                                       
                                            ###                                      
                                            ####                                     
                                            #####                                    
                                            ######                                   
                                           ########,                                 
                                     ,,################,,,,,                         
                               ,,#################################,,                 
                          ,,##########################################,,             
                       ,#########################################, ''#####,          
                    ,#############################################,,   '####,        
                  ,##################################################,,,,####,       
                ,###########''''           ''''###############################       
              ,#####''   ,,,,##########,,,,          '''####'''          '####       
            ,##' ,,,,###########################,,,                        '##       
           ' ,,###''''                  '''############,,,                           
         ,,##''                                '''############,,,,        ,,,,,,###''
      ,#''                                            '''#######################'''  
     '                                                          ''''####''''         
             ,#######,   #######,   ,#######,      ##                                
            ,#'     '#,  ##    ##  ,#'     '#,    #''#        ,####,   ,####,        
            ##       ##  ##   ,#'  ##            #'  '#       #'       #'  '#        
            ##       ##  #######   ##           ,######,      #####,   #    #        
            '#,     ,#'  ##    ##  '#,     ,#' ,#      #,     #,   #   #,  ,#        
             '#######'   ##     ##  '#######'  #'      '#     '####' # '####'        



                #########################################################
                #                        -***-                          #
                #          Department of theory and spectroscopy        #
                #                                                       #
                #                      Frank Neese                      #
                #                                                       #
                #     Directorship, Architecture, Infrastructure        #
                #                    SHARK, DRIVERS                     #
                #        Core code/Algorithms in most modules           #
                #                                                       #
                #        Max Planck Institute fuer Kohlenforschung      #
                #                Kaiser Wilhelm Platz 1                 #
                #                 D-45470 Muelheim/Ruhr                 #
                #                      Germany                          #
                #                                                       #
                #                  All rights reserved                  #
                #                        -***-                          #
                #########################################################


                         Program Version 6.0.1  -  RELEASE   -


 With contributions from (in alphabetic order):
[Max-Planck-Institut fuer Kohlenforschung]                               
  Daniel Aravena         : Magnetic Suceptibility                        
  Michael Atanasov       : Ab Initio Ligand Field Theory (pilot matlab implementation)
  Alexander A. Auer      : GIAO ZORA, VPT2 properties, NMR spectrum      
  Ute Becker             : All parallelization in ORCA, NUMFREQ, NUMCALC 
  Giovanni Bistoni       : ED, misc. LED, open-shell LED, HFLD           
  Martin Brehm           : Molecular dynamics                            
  Dmytro Bykov           : pre 5.0 version of the SCF Hessian            
  Marcos Casanova-Páez   : Triplet and SCS-CIS(D). UHF-(DLPNO)-IP/EA/STEOM-CCSD. UHF-CVS-IP/STEOM-CCSD   
  Vijay G. Chilkuri      : MRCI spin determinant printing, contributions to CSF-ICE 
  Pauline Colinet        : FMM embedding                                 
  Dipayan Datta          : RHF DLPNO-CCSD density                        
  Achintya Kumar Dutta   : EOM-CC, STEOM-CC                              
  Nicolas Foglia         : Exact transition moments, OPA infrastructure, MCD improvements    
  Dmitry Ganyushin       : Spin-Orbit,Spin-Spin,Magnetic field MRCI      
  Miquel Garcia-Rates    : C-PCM and meta-GGA Hessian, CCSD/C-PCM, Gaussian charge scheme 
  Tiago L. C. Gouveia    : GS-ROHF, GS-ROCIS                             
  Yang Guo               : DLPNO-NEVPT2, F12-NEVPT2, CIM, IAO-localization        
  Andreas Hansen         : Spin unrestricted coupled pair/coupled cluster methods 
  Ingolf Harden          : AUTO-CI MPn and infrastructure                
  Benjamin Helmich-Paris : MC-RPA, TRAH-(SCF,CASSCF), AVAS, COSX integrals, SCF dyn. polar. 
  Lee Huntington         : MR-EOM, pCC                                   
  Robert Izsak           : Overlap fitted RIJCOSX, COSX-SCS-MP3, EOM     
  Riya Kayal             : Wick's Theorem for AUTO-CI, AUTO-CI UHF-CCSDT 
  Emily Kempfer          : AUTO-CI, RHF CISDT and CCSDT                  
  Christian Kollmar      : KDIIS, OOCD, Brueckner-CCSD(T), CCSD density, CASPT2, CASPT2-K, improved NEVPT2 
  Axel Koslowski         : Symmetry handling                             
  Simone Kossmann        : meta-GGA functionals, TD-DFT gradient, OOMP2, (MP2 Hessian; deprecated post 5.0) 
  Lucas Lang             : DCDCAS                                        
  Marvin Lechner         : AUTO-CI (C++ implementation), FIC-MRCC        
  Spencer Leger          : CASSCF response                               
  Dagmar Lenk            : GEPOL surface, SMD, ORCA-2-JSON               
  Dimitrios Liakos       : Extrapolation schemes; Compound Job, initial MDCI parallelization 
  Dimitrios Manganas     : Further ROCIS development; embedding schemes. LFT, Crystal Embedding 
  Dimitrios Pantazis     : SARC Basis sets                               
  Anastasios Papadopoulos: AUTO-CI, single reference methods and gradients 
  Taras Petrenko         : pre 6.0 DFT Hessian and TD-DFT gradient, (ASA, deprecated), ECA, 1-Electron XAS/XES, NRVS 
  Peter Pinski           : DLPNO-MP2, DLPNO-MP2 Gradient                 
  Christoph Reimann      : Effective Core Potentials                     
  Marius Retegan         : Local ZFS, SOC                                
  Christoph Riplinger    : Optimizer, TS searches, QM/MM, DLPNO-CCSD(T), (RO)-DLPNO pert. Triples 
  Michael Roemelt        : Original ROCIS implementation                 
  Masaaki Saitow         : Open-shell DLPNO-CCSD energy and density      
  Barbara Sandhoefer     : DKH picture change effects                    
  Kantharuban Sivalingam : CASSCF convergence/infrastructure, NEVPT2 and variants, FIC-MRCI 
  Bernardo de Souza      : ESD, SOC TD-DFT                               
  Georgi L. Stoychev     : AutoAux, RI-MP2 NMR, DLPNO-MP2 response, X2C  
  Van Anh Tran           : RI-MP2 g-tensors                              
  Willem Van den Heuvel  : Paramagnetic NMR                              
  Zikuan Wang            : NOTCH, Electric field optimization            
  Frank Wennmohs         : Technical directorship and infrastructure     
  Hang Xu                : AUTO-CI-Response properties                   
                                                                         
[FACCTs GmbH]                                                            
  Markus Bursch, Miquel Garcia-Rates, Christoph Riplinger, Bernardo de Souza, Georgi L. Stoychev 
                                                                 
  APM, Basis sets (HGBS, AHGBS, def-TZVP (Ac-Lr), def2-XVPD (La-Lu)), CI-OPT, improved COSX, DLPNO-Multilevel,           
  DOCKER, DRACO, updates on ESD, GOAT, IRC, LR-CPCM, MBIS, meta-GGA TD-DFT gradient, ML-optimized integration grids, 
  MM, NACMEs, nearIR, NEB, NEB-TS, NL-DFT gradient (VV10), 2- and 3-layer-ONIOM, interface openCOSMO-RS, QMMM,   
  Crystal-QMMM, SF, symmetry and pop. for TD-DFT, r2SCAN hybrids, SOLVATOR                                   
                                                                         
[Other institutions]                                                     
  V. Asgeirsson          : NEB                                           
  Christoph Bannwarth    : sTDA-DFT, sTD-DFT, PBEh-3c, B97-3c, D3        
  Sebastian Ehlert       : rSCAN, r2SCAN, r2SCAN-3c, D4, dhf basis sets  
  Marvin Friede          : D4 for Fr, Ra, Ac-Lr                          
  Lars Goerigk           : TD-DFT with DH, B97 family of functionals     
  Stefan Grimme          : VdW corrections, initial TS optimization, DFT functionals, gCP, sTDA/sTD-DF 
  Waldemar Hujo          : DFT-NL                                        
  H. Jonsson             : NEB                                           
  Holger Kruse           : gCP                                           
  Marcel Mueller         : wB97X-3c, vDZP basis set                      
  Hagen Neugebauer       : wr2SCAN                                       
  Tobias Risthaus        : range-separated hybrid DFT                    
  Lukas Wittmann         : regularized MP2, r2SCAN double-hybrids, wr2SCAN        
                                                                         
We gratefully acknowledge several colleagues who have allowed us to      
interface, adapt or use parts of their codes:                            
  Ed Valeev, F. Pavosevic, A. Kumar             : LibInt (2-el integral package), F12 methods 
  Garnet Chan, S. Sharma, J. Yang, R. Olivares  : DMRG                   
  Ulf Ekstrom                                   : XCFun DFT Library      
  Mihaly Kallay                                 : mrcc  (arbitrary order and MRCC methods)
  Frank Weinhold                                : gennbo (NPA and NBO analysis)           
  Simon Mueller                                 : openCOSMO-RS                            
  Christopher J. Cramer and Donald G. Truhlar   : smd solvation model                     
  S Lehtola, MJT Oliveira, MAL Marques          : LibXC Library                           
  Liviu Ungur et al                             : ANISO software                          


 Your calculation uses the libint2 library for the computation of 2-el integrals
 For citations please refer to: http://libint.valeyev.net

 Your ORCA version has been built with support for libXC version: 6.2.2
 For citations please refer to: https://libxc.gitlab.io

 This ORCA versions uses:
   CBLAS   interface :  Fast vector & matrix operations
   LAPACKE interface :  Fast linear algebra routines
   SCALAPACK package :  Parallel linear algebra routines
   Shared memory     :  Shared parallel matrices
   BLAS/LAPACK       :  OpenBLAS 0.3.27  USE64BITINT DYNAMIC_ARCH NO_AFFINITY Cooperlake SINGLE_THREADED
        Core in use  :  Cooperlake
   Copyright (c) 2011-2014, The OpenBLAS Project


Warning: RI is on but no J-basis has been assigned. Assigning Def2/J (nothing to worry about!)
================================================================================

----- Orbital basis set information -----
Your calculation utilizes the basis: 6-311G*
   H, Li - Ne  : R. Krishnan, J. S. Binkley, R. Seeger and J. A. Pople, J. Chem. Phys. 72, 650 (1980).
   Na - Ar     : A. D. McLean and G. S. Chandler J. Chem. Phys. 72, 5639, (1980).
   K  - Ca     : J.-P. Blaudeau, M. P. McGrath, L. A. Curtiss and L. Radom, J. Chem. Phys. 107, 5016 (1997).
   Ga - Kr     : L. A. Curtiss, M. P. McGrath, J.-P. Blandeau, N. E. Davis, R. C. Binning and L. Radom, J. Chem. Phys. 103, 6104 (1995).
   Pol./Diff.
   H, Li - Cl  : T. Clark, J. Chandrasekhar and P. v. R. Schleyer, J. Comp. Chem. 4, 294 (1983).
   H - Ne      : M. J. Frisch, J. A. Pople and J. S. Binkley, J. Chem. Phys. 80, 3265 (1984).

----- AuxJ basis set information -----
Your calculation utilizes the auxiliary basis: def2/J
   F. Weigend, Phys. Chem. Chem. Phys. 8, 1057 (2006).

================================================================================
                                        WARNINGS
                       Please study these warnings very carefully!
================================================================================


WARNING: Geometry Optimization
  ===> : Switching off AutoStart
         For restart on a previous wavefunction, please use MOREAD

================================================================================
                                       INPUT FILE
================================================================================
NAME = 4.inp
|  1> ! B3LYP/G OPT FREQ 6-311G* CPCM(Water)
|  2> 
|  3> * xyz 1 1 
|  4> C  -3.46274176772867781082 -0.58988987505345713558 1.89027033186135495768
|  5> C  -3.29877490556649766162 -1.35240377949941237290 3.04774507305637154531
|  6> C  -2.07480477382806416387 -1.43913504349931686832 3.66381632149985669855
|  7> C  -2.41950696906223683413 0.16913205229834371579 1.40973132700835712683
|  8> C  -1.17878631404561140528 0.19084917945008195161 2.09361477541689655624
|  9> O  -2.42197557607644675670 0.81124563889723488863 0.19481085924993735148
| 10> C  -0.98474047462484093352 -0.70538313608211122840 3.17718483664784034914
| 11> C  0.32789086779730047816 -0.89680215699724552536 3.69991288472457213743
| 12> C  1.40464898581094432828 -0.31661999615479352599 3.11965525027681334080
| 13> C  -0.07910192547335159752 0.99186912149258565918 1.67480566789078544332
| 14> C  1.23672336969571983190 0.64165065372802132515 2.07963096813223513593
| 15> N  -0.24713363031712209938 2.10383632293848688022 0.90826746791211510068
| 16> C  0.79614358601545776040 2.68921763368912625225 0.30408937676285685558
| 17> C  2.08801575045132059572 2.24946947416126441510 0.50155595363229932282
| 18> C  2.31814503408450800492 1.28081335259841821994 1.46286301276913999203
| 19> C  -3.56903152592129035980 1.09525310707295542301 -0.50788288233246903225
| 20> O  -4.65382996398340864630 1.26427244118661485928 0.02693309107293151428
| 21> N  -3.32727203954939732000 1.19803590388276259837 -1.81157651358577553857
| 22> C  -2.01779177910548224162 1.02779600068975174310 -2.40723855148740994991
| 23> C  -4.38264947562994056085 1.60815447908835329471 -2.71316898313482202099
| 24> H  -4.57308792584613321708 0.81899243239738650502 -3.44094432301022390419
| 25> H  -4.08926318673087507705 2.51691488601792201507 -3.23712239435966164791
| 26> H  -5.28932950111514799119 1.79369302167941491177 -2.14155715790882794636
| 27> H  -1.51244693295551857481 1.99076976065274369176 -2.48978094437134878092
| 28> H  -2.14861809041059359515 0.60232374155669199389 -3.39996306487171029431
| 29> H  -1.41267540898043275632 0.35536974656011977025 -1.80585930321322396530
| 30> H  -1.93422447836222000106 -2.09039316557842536071 4.51137503689351593295
| 31> H  -4.40724308892219429623 -0.59591693261921818703 1.37047426840585284680
| 32> H  -4.14042820737767858219 -1.91316318151591824304 3.42168943210900788898
| 33> H  0.44354910340685882453 -1.57496747577586582167 4.53029873296770535518
| 34> H  2.40672429291412504071 -0.54184923887372082874 3.44632713302206994399
| 35> H  0.55921047762388242930 3.54727860289397511906 -0.30614557237067474560
| 36> H  2.90014718222503953271 2.71688866740494638918 -0.02958769905421854141
| 37> H  3.32327043389402421170 1.01406258424521666939 1.75097846535598433704
| 38> P  -1.62192205398968947172 3.17889415315249124205 1.16684720274546327445
| 39> O  -2.65959618708554890176 2.74348257280786533840 2.10324253791208226616
| 40> O  -1.95232406706364103322 3.51574557220321270989 -0.32914216187382150380
| 41> O  -0.83246871213499462616 4.46433715476232606534 1.66760309163328002136
| 42> C  -3.10242637636753171293 4.30056094309205594328 -0.68951641016715869981
| 43> C  -0.76739226741679067434 4.79657170087193218677 3.05791212391063904619
| 44> C  -3.08159041704939173911 5.68408638123587550695 -0.07273238138461346480
| 45> H  -4.00926007955165175645 3.76705707923410493265 -0.38728553149304767445
| 46> H  -3.05468136117128441498 4.35660932545571277785 -1.77832757072070912763
| 47> H  -3.19688246820306343210 5.61558830740583658780 1.00782292897713032787
| 48> H  -3.90612837692068870510 6.26596022251067896747 -0.47449994685761964774
| 49> H  -2.14542993579420615546 6.18796403066178868357 -0.29872111461963557488
| 50> C  0.21298387983580657767 3.90858329072779531188 3.80027781688539523230
| 51> H  -1.76740373161518116163 4.70438687800179700105 3.49183599629759466865
| 52> H  -0.45417218779127832562 5.84175559094468965782 3.07866195927823405043
| 53> H  0.31414935845419900140 4.26318085811130309537 4.82167193132438498537
| 54> H  1.18716768691206819852 3.93399267727115597992 3.31903909489874138217
| 55> H  -0.15794387266060594399 2.88493845467244369729 3.82295755647502932817
| 56> *
| 57> 
| 58>                          ****END OF INPUT****
================================================================================

                       *****************************
                       * Geometry Optimization Run *
                       *****************************

Geometry optimization settings:
Update method            Update   .... BFGS
Choice of coordinates    CoordSys .... (2022) Redundant Internals
Initial Hessian          InHess   .... Almloef's Model
Max. no of cycles        MaxIter  .... 156

Convergence Tolerances:
Energy Change            TolE     ....  5.0000e-06 Eh
Max. Gradient            TolMAXG  ....  3.0000e-04 Eh/bohr
RMS Gradient             TolRMSG  ....  1.0000e-04 Eh/bohr
Max. Displacement        TolMAXD  ....  4.0000e-03 bohr
RMS Displacement         TolRMSD  ....  2.0000e-03 bohr
Strict Convergence                .... False

------------------------------------------------------------------------------
                        ORCA OPTIMIZATION COORDINATE SETUP
------------------------------------------------------------------------------

The optimization will be done in redundant internal coordinates (2022)
Making redundant internal coordinates   ...  (2022 redundants) done
Evaluating the initial hessian          ...  (Almloef) done
Evaluating the coordinates              ...  done
Calculating the B-matrix                .... done
Calculating the G-matrix                .... done
Diagonalizing the G-matrix              .... done
Small eigenvalue found = 1.630e-03
Small eigenvalue found = 4.546e-03
Small eigenvalue found = 5.089e-03
Small eigenvalue found = 8.077e-03
Small eigenvalue found = 1.106e-02
Small eigenvalue found = 1.278e-02
Small eigenvalue found = 1.810e-02
Small eigenvalue found = 2.235e-02
Small eigenvalue found = 2.468e-02
Small eigenvalue found = 2.776e-02
The first mode is                       ....  109
The number of degrees of freedom        ....  150

    -----------------------------------------------------------------
                    Redundant Internal Coordinates


    -----------------------------------------------------------------
         Definition                    Initial Value    Approx d2E/dq
    -----------------------------------------------------------------
      1. B(C   1,C   0)                  1.3957         0.611784   
      2. B(C   2,C   1)                  1.3730         0.665025   
      3. B(C   3,C   0)                  1.3767         0.656022   
      4. B(C   4,C   3)                  1.4169         0.566043   
      5. B(O   5,C   3)                  1.3742         0.593101   
      6. B(C   6,C   4)                  1.4195         0.560604   
      7. B(C   6,C   2)                  1.4012         0.599548   
      8. B(C   7,C   6)                  1.4258         0.547813   
      9. B(C   8,C   7)                  1.3538         0.713718   
     10. B(C   9,C   4)                  1.4235         0.552457   
     11. B(C  10,C   9)                  1.4205         0.558489   
     12. B(C  10,C   8)                  1.4241         0.551181   
     13. B(N  11,C   9)                  1.3610         0.622534   
     14. B(C  12,N  11)                  1.3402         0.671942   
     15. B(C  13,C  12)                  1.3789         0.650853   
     16. B(C  14,C  13)                  1.3840         0.638798   
     17. B(C  14,C  10)                  1.3994         0.603523   
     18. B(C  15,O   5)                  1.3748         0.591654   
     19. B(O  16,C  15)                  1.2212         1.040279   
     20. B(N  17,C  15)                  1.3299         0.697853   
     21. B(C  18,N  17)                  1.4486         0.451162   
     22. B(C  19,N  17)                  1.4474         0.453253   
     23. B(H  20,C  19)                  1.0903         0.359736   
     24. B(H  21,C  19)                  1.0892         0.361104   
     25. B(H  22,C  19)                  1.0878         0.363068   
     26. B(H  23,C  18)                  1.0906         0.359249   
     27. B(H  24,C  18)                  1.0880         0.362817   
     28. B(H  25,C  18)                  1.0863         0.365070   
     29. B(H  26,C   2)                  1.0781         0.376219   
     30. B(H  27,C   0)                  1.0781         0.376187   
     31. B(H  28,C   1)                  1.0783         0.375957   
     32. B(H  29,C   7)                  1.0783         0.375854   
     33. B(H  30,C   8)                  1.0778         0.376642   
     34. B(H  31,C  12)                  1.0793         0.374598   
     35. B(H  32,C  13)                  1.0771         0.377571   
     36. B(H  33,C  14)                  1.0791         0.374820   
     37. B(P  34,N  11)                  1.7643         0.475600   
     38. B(O  35,P  34)                  1.4640         1.433397   
     39. B(O  36,P  34)                  1.5686         0.975814   
     40. B(O  37,P  34)                  1.5895         0.903976   
     41. B(C  38,O  36)                  1.4382         0.468715   
     42. B(C  39,O  37)                  1.4309         0.481467   
     43. B(C  40,C  38)                  1.5149         0.394846   
     44. B(H  41,C  38)                  1.0947         0.353966   
     45. B(H  42,H  21)                  2.5657         0.000305   
     46. B(H  42,C  38)                  1.0913         0.358387   
     47. B(H  43,C  40)                  1.0888         0.361631   
     48. B(H  44,C  40)                  1.0862         0.365146   
     49. B(H  45,C  40)                  1.0869         0.364219   
     50. B(C  46,C  39)                  1.5168         0.392096   
     51. B(H  47,C  39)                  1.0940         0.354862   
     52. B(H  48,C  39)                  1.0913         0.358378   
     53. B(H  49,C  46)                  1.0859         0.365539   
     54. B(H  50,C  46)                  1.0869         0.364274   
     55. B(H  51,C  46)                  1.0890         0.361407   
     56. A(C   1,C   0,C   3)          120.1086         0.437451   
     57. A(C   1,C   0,H  27)          119.9803         0.354729   
     58. A(C   3,C   0,H  27)          119.9110         0.358961   
     59. A(C   0,C   1,C   2)          120.7532         0.438528   
     60. A(C   0,C   1,H  28)          118.6866         0.354692   
     61. A(C   2,C   1,H  28)          120.4886         0.359758   
     62. A(C   1,C   2,H  26)          120.4748         0.359801   
     63. A(C   6,C   2,H  26)          119.2039         0.353522   
     64. A(C   1,C   2,C   6)          120.3035         0.436933   
     65. A(C   4,C   3,O   5)          114.9068         0.420897   
     66. A(C   0,C   3,O   5)          124.3921         0.432167   
     67. A(C   0,C   3,C   4)          120.2338         0.431376   
     68. A(C   6,C   4,C   9)          118.3111         0.417598   
     69. A(C   3,C   4,C   9)          122.8945         0.418317   
     70. A(C   3,C   4,C   6)          118.5853         0.419410   
     71. A(C   3,O   5,C  15)          123.3605         0.421480   
     72. A(C   4,C   6,C   7)          119.3716         0.416971   
     73. A(C   2,C   6,C   7)          121.2361         0.421995   
     74. A(C   2,C   6,C   4)          119.2993         0.423739   
     75. A(C   6,C   7,H  29)          117.7423         0.348117   
     76. A(C   6,C   7,C   8)          121.1692         0.435395   
     77. A(C   8,C   7,H  29)          120.9491         0.364106   
     78. A(C  10,C   8,H  30)          118.1382         0.348599   
     79. A(C   7,C   8,H  30)          121.3345         0.364236   
     80. A(C   7,C   8,C  10)          120.5045         0.435876   
     81. A(C   4,C   9,C  10)          119.5381         0.417317   
     82. A(C  10,C   9,N  11)          118.4440         0.423537   
     83. A(C   4,C   9,N  11)          122.0110         0.422716   
     84. A(C   9,C  10,C  14)          118.5284         0.423953   
     85. A(C   8,C  10,C  14)          122.5521         0.422956   
     86. A(C   8,C  10,C   9)          118.8968         0.417145   
     87. A(C   9,N  11,P  34)          120.7648         0.436630   
     88. A(C   9,N  11,C  12)          120.9751         0.434967   
     89. A(C  12,N  11,P  34)          113.9861         0.442691   
     90. A(N  11,C  12,H  31)          115.5482         0.357939   
     91. A(N  11,C  12,C  13)          121.7000         0.441367   
     92. A(C  13,C  12,H  31)          122.6979         0.358220   
     93. A(C  12,C  13,H  32)          119.8283         0.358702   
     94. A(C  12,C  13,C  14)          118.5860         0.440246   
     95. A(C  14,C  13,H  32)          121.3914         0.357564   
     96. A(C  10,C  14,H  33)          119.2888         0.353694   
     97. A(C  10,C  14,C  13)          119.8219         0.434295   
     98. A(C  13,C  14,H  33)          120.8878         0.357119   
     99. A(O  16,C  15,N  17)          125.4569         0.480944   
    100. A(O   5,C  15,N  17)          111.4282         0.433947   
    101. A(O   5,C  15,O  16)          123.0845         0.466569   
    102. A(C  18,N  17,C  19)          115.8673         0.383228   
    103. A(C  15,N  17,C  19)          119.9992         0.413758   
    104. A(C  15,N  17,C  18)          123.9404         0.413418   
    105. A(N  17,C  18,H  25)          110.4050         0.333323   
    106. A(H  23,C  18,H  24)          109.3875         0.291075   
    107. A(H  23,C  18,H  25)          109.2900         0.291358   
    108. A(N  17,C  18,H  24)          108.2074         0.332981   
    109. A(N  17,C  18,H  23)          110.2548         0.332436   
    110. A(H  24,C  18,H  25)          109.2725         0.291811   
    111. A(H  21,C  19,H  22)          109.5712         0.291342   
    112. A(H  20,C  19,H  22)          109.1864         0.291169   
    113. A(N  17,C  19,H  22)          109.1943         0.333275   
    114. A(H  20,C  19,H  21)          109.2591         0.290920   
    115. A(N  17,C  19,H  21)          109.8551         0.332975   
    116. A(N  17,C  19,H  20)          109.7595         0.332766   
    117. A(N  11,P  34,O  36)           98.9288         0.507169   
    118. A(N  11,P  34,O  35)          117.7004         0.545195   
    119. A(O  36,P  34,O  37)          103.3799         0.572594   
    120. A(O  35,P  34,O  37)          113.0213         0.616569   
    121. A(N  11,P  34,O  37)           98.7395         0.499994   
    122. A(O  35,P  34,O  36)          121.6399         0.625779   
    123. A(P  34,O  36,C  38)          121.6395         0.472588   
    124. A(P  34,O  37,C  39)          121.0954         0.468304   
    125. A(H  41,C  38,H  42)          109.6781         0.289839   
    126. A(C  40,C  38,H  42)          111.0206         0.327030   
    127. A(O  36,C  38,H  42)          104.0657         0.334415   
    128. A(C  40,C  38,H  41)          110.1254         0.326362   
    129. A(O  36,C  38,H  41)          109.1061         0.333726   
    130. A(O  36,C  38,C  40)          112.6644         0.379044   
    131. A(C  46,C  39,H  48)          111.4612         0.326652   
    132. A(O  37,C  39,H  48)          104.7081         0.335909   
    133. A(C  46,C  39,H  47)          110.3256         0.326123   
    134. A(O  37,C  39,H  47)          108.9199         0.335359   
    135. A(O  37,C  39,C  46)          111.6536         0.380350   
    136. A(H  47,C  39,H  48)          109.6042         0.289953   
    137. A(H  44,C  40,H  45)          109.1820         0.291998   
    138. A(H  43,C  40,H  45)          109.0686         0.291554   
    139. A(C  38,C  40,H  45)          110.5224         0.327901   
    140. A(H  43,C  40,H  44)          108.6863         0.291671   
    141. A(C  38,C  40,H  44)          109.1592         0.328039   
    142. A(C  38,C  40,H  43)          110.1897         0.327516   
    143. A(H  50,C  46,H  51)          109.6634         0.291533   
    144. A(H  49,C  46,H  51)          108.6075         0.291692   
    145. A(C  39,C  46,H  51)          109.8970         0.327105   
    146. A(H  49,C  46,H  50)          108.9856         0.292055   
    147. A(C  39,C  46,H  50)          110.4222         0.327532   
    148. A(C  39,C  46,H  49)          109.2315         0.327719   
    149. D(C   2,C   1,C   0,C   3)     -5.0207         0.025858   
    150. D(H  28,C   1,C   0,H  27)     -2.0403         0.025858   
    151. D(C   2,C   1,C   0,H  27)    174.8973         0.025858   
    152. D(H  28,C   1,C   0,C   3)    178.0417         0.025858   
    153. D(C   6,C   2,C   1,H  28)   -179.7941         0.030895   
    154. D(H  26,C   2,C   1,C   0)   -175.1333         0.030895   
    155. D(C   6,C   2,C   1,C   0)      3.3236         0.030895   
    156. D(H  26,C   2,C   1,H  28)      1.7491         0.030895   
    157. D(C   4,C   3,C   0,H  27)    179.4723         0.030004   
    158. D(O   5,C   3,C   0,C   1)    171.1367         0.030004   
    159. D(O   5,C   3,C   0,H  27)     -8.7813         0.030004   
    160. D(C   4,C   3,C   0,C   1)     -0.6097         0.030004   
    161. D(C   6,C   4,C   3,O   5)   -164.8184         0.021966   
    162. D(C   9,C   4,C   3,C   0)   -177.6714         0.021966   
    163. D(C   6,C   4,C   3,C   0)      7.6769         0.021966   
    164. D(C   9,C   4,C   3,O   5)      9.8333         0.021966   
    165. D(C  15,O   5,C   3,C   4)   -168.5735         0.025653   
    166. D(C  15,O   5,C   3,C   0)     19.2861         0.025653   
    167. D(C   7,C   6,C   4,C   9)     -7.6389         0.021529   
    168. D(C   2,C   6,C   4,C   9)    175.8248         0.021529   
    169. D(C   2,C   6,C   4,C   3)     -9.2755         0.021529   
    170. D(C   7,C   6,C   4,C   3)    167.2607         0.021529   
    171. D(C   7,C   6,C   2,H  26)      5.9004         0.024778   
    172. D(C   4,C   6,C   2,H  26)   -177.6300         0.024778   
    173. D(C   4,C   6,C   2,C   1)      3.8936         0.024778   
    174. D(C   7,C   6,C   2,C   1)   -172.5760         0.024778   
    175. D(H  29,C   7,C   6,C   4)    179.3172         0.020524   
    176. D(H  29,C   7,C   6,C   2)     -4.2157         0.020524   
    177. D(C   8,C   7,C   6,C   4)     -4.9369         0.020524   
    178. D(C   8,C   7,C   6,C   2)    171.5302         0.020524   
    179. D(C  10,C   8,C   7,C   6)      8.3736         0.035997   
    180. D(H  30,C   8,C   7,H  29)      2.2119         0.035997   
    181. D(H  30,C   8,C   7,C   6)   -173.3977         0.035997   
    182. D(C  10,C   8,C   7,H  29)   -176.0168         0.035997   
    183. D(N  11,C   9,C   4,C   6)   -162.3194         0.020886   
    184. D(N  11,C   9,C   4,C   3)     23.0151         0.020886   
    185. D(C  10,C   9,C   4,C   6)     16.7070         0.020886   
    186. D(C  10,C   9,C   4,C   3)   -157.9586         0.020886   
    187. D(C  14,C  10,C   9,N  11)    -12.7539         0.021361   
    188. D(C  14,C  10,C   9,C   4)    168.1850         0.021361   
    189. D(C   8,C  10,C   9,N  11)    165.5569         0.021361   
    190. D(C   8,C  10,C   9,C   4)    -13.5041         0.021361   
    191. D(C  14,C  10,C   8,H  30)      0.8283         0.020786   
    192. D(C  14,C  10,C   8,C   7)    179.1126         0.020786   
    193. D(C   9,C  10,C   8,H  30)   -177.4110         0.020786   
    194. D(C   9,C  10,C   8,C   7)      0.8733         0.020786   
    195. D(P  34,N  11,C   9,C  10)   -140.9343         0.031402   
    196. D(P  34,N  11,C   9,C   4)     38.1023         0.031402   
    197. D(C  12,N  11,C   9,C  10)     14.4489         0.031402   
    198. D(C  12,N  11,C   9,C   4)   -166.5145         0.031402   
    199. D(H  31,C  12,N  11,P  34)    -24.8515         0.037069   
    200. D(H  31,C  12,N  11,C   9)    178.2125         0.037069   
    201. D(C  13,C  12,N  11,P  34)    152.5466         0.037069   
    202. D(C  13,C  12,N  11,C   9)     -4.3894         0.037069   
    203. D(H  32,C  13,C  12,H  31)     -5.2211         0.029500   
    204. D(H  32,C  13,C  12,N  11)    177.5685         0.029500   
    205. D(C  14,C  13,C  12,H  31)    169.7850         0.029500   
    206. D(C  14,C  13,C  12,N  11)     -7.4254         0.029500   
    207. D(C  10,C  14,C  13,C  12)      8.6399         0.028345   
    208. D(H  33,C  14,C  10,C   9)   -179.1356         0.025126   
    209. D(H  33,C  14,C  10,C   8)      2.6189         0.025126   
    210. D(C  13,C  14,C  10,C   9)      1.2968         0.025126   
    211. D(C  13,C  14,C  10,C   8)   -176.9487         0.025126   
    212. D(H  33,C  14,C  13,H  32)      4.0040         0.028345   
    213. D(H  33,C  14,C  13,C  12)   -170.9206         0.028345   
    214. D(C  10,C  14,C  13,H  32)   -176.4355         0.028345   
    215. D(N  17,C  15,O   5,C   3)   -154.4699         0.025521   
    216. D(O  16,C  15,O   5,C   3)     27.4365         0.025521   
    217. D(C  19,N  17,C  15,O  16)      3.4244         0.040276   
    218. D(C  19,N  17,C  15,O   5)   -174.6147         0.040276   
    219. D(C  18,N  17,C  15,O  16)    178.1610         0.040276   
    220. D(C  18,N  17,C  15,O   5)      0.1220         0.040276   
    221. D(H  25,C  18,N  17,C  15)     28.4047         0.017365   
    222. D(H  24,C  18,N  17,C  19)    -37.1173         0.017365   
    223. D(H  24,C  18,N  17,C  15)    147.9479         0.017365   
    224. D(H  23,C  18,N  17,C  19)     82.4776         0.017365   
    225. D(H  23,C  18,N  17,C  15)    -92.4572         0.017365   
    226. D(H  22,C  19,N  17,C  15)      0.4567         0.017529   
    227. D(H  21,C  19,N  17,C  18)    -54.5045         0.017529   
    228. D(H  21,C  19,N  17,C  15)    120.6437         0.017529   
    229. D(H  20,C  19,N  17,C  18)     65.6509         0.017529   
    230. D(H  20,C  19,N  17,C  15)   -119.2008         0.017529   
    231. D(O  37,P  34,N  11,C   9)    113.9139         0.005034   
    232. D(O  36,P  34,N  11,C  12)     62.0627         0.005034   
    233. D(O  36,P  34,N  11,C   9)   -140.9479         0.005034   
    234. D(O  35,P  34,N  11,C  12)   -164.9186         0.005034   
    235. D(O  35,P  34,N  11,C   9)     -7.9291         0.005034   
    236. D(C  38,O  36,P  34,O  37)    -83.9998         0.016354   
    237. D(C  38,O  36,P  34,O  35)     44.2236         0.016354   
    238. D(C  38,O  36,P  34,N  11)    174.7282         0.016354   
    239. D(C  39,O  37,P  34,O  36)    156.9961         0.014097   
    240. D(C  39,O  37,P  34,O  35)     23.6073         0.014097   
    241. D(C  39,O  37,P  34,N  11)   -101.5852         0.014097   
    242. D(H  42,C  38,O  36,P  34)    179.9850         0.017316   
    243. D(H  41,C  38,O  36,P  34)    -63.0034         0.017316   
    244. D(C  40,C  38,O  36,P  34)     59.6297         0.017316   
    245. D(H  48,C  39,O  37,P  34)   -162.9797         0.018289   
    246. D(H  47,C  39,O  37,P  34)    -45.8070         0.018289   
    247. D(C  46,C  39,O  37,P  34)     76.2765         0.018289   
    248. D(H  44,C  40,C  38,H  42)     56.9358         0.012382   
    249. D(H  44,C  40,C  38,H  41)    -64.7339         0.012382   
    250. D(H  44,C  40,C  38,O  36)    173.2067         0.012382   
    251. D(H  43,C  40,C  38,H  42)    176.2198         0.012382   
    252. D(H  43,C  40,C  38,H  41)     54.5502         0.012382   
    253. D(H  43,C  40,C  38,O  36)    -67.5092         0.012382   
    254. D(H  50,C  46,C  39,H  48)    -62.7832         0.012217   
    255. D(H  50,C  46,C  39,H  47)    175.2061         0.012217   
    256. D(H  50,C  46,C  39,O  37)     53.9348         0.012217   
    257. D(H  49,C  46,C  39,H  48)     57.0555         0.012217   
    258. D(H  49,C  46,C  39,H  47)    -64.9552         0.012217   
    259. D(H  49,C  46,C  39,O  37)    173.7735         0.012217   
    -----------------------------------------------------------------

Number of atoms                         .... 52
Number of degrees of freedom            .... 259


         *************************************************************
         *                GEOMETRY OPTIMIZATION CYCLE   1            *
         *************************************************************
---------------------------------
CARTESIAN COORDINATES (ANGSTROEM)
---------------------------------
  C     -3.462742   -0.589890    1.890270
  C     -3.298775   -1.352404    3.047745
  C     -2.074805   -1.439135    3.663816
  C     -2.419507    0.169132    1.409731
  C     -1.178786    0.190849    2.093615
  O     -2.421976    0.811246    0.194811
  C     -0.984740   -0.705383    3.177185
  C      0.327891   -0.896802    3.699913
  C      1.404649   -0.316620    3.119655
  C     -0.079102    0.991869    1.674806
  C      1.236723    0.641651    2.079631
  N     -0.247134    2.103836    0.908267
  C      0.796144    2.689218    0.304089
  C      2.088016    2.249469    0.501556
  C      2.318145    1.280813    1.462863
  C     -3.569032    1.095253   -0.507883
  O     -4.653830    1.264272    0.026933
  N     -3.327272    1.198036   -1.811577
  C     -2.017792    1.027796   -2.407239
  C     -4.382649    1.608154   -2.713169
  H     -4.573088    0.818992   -3.440944
  H     -4.089263    2.516915   -3.237122
  H     -5.289330    1.793693   -2.141557
  H     -1.512447    1.990770   -2.489781
  H     -2.148618    0.602324   -3.399963
  H     -1.412675    0.355370   -1.805859
  H     -1.934224   -2.090393    4.511375
  H     -4.407243   -0.595917    1.370474
  H     -4.140428   -1.913163    3.421689
  H      0.443549   -1.574967    4.530299
  H      2.406724   -0.541849    3.446327
  H      0.559210    3.547279   -0.306146
  H      2.900147    2.716889   -0.029588
  H      3.323270    1.014063    1.750978
  P     -1.621922    3.178894    1.166847
  O     -2.659596    2.743483    2.103243
  O     -1.952324    3.515746   -0.329142
  O     -0.832469    4.464337    1.667603
  C     -3.102426    4.300561   -0.689516
  C     -0.767392    4.796572    3.057912
  C     -3.081590    5.684086   -0.072732
  H     -4.009260    3.767057   -0.387286
  H     -3.054681    4.356609   -1.778328
  H     -3.196882    5.615588    1.007823
  H     -3.906128    6.265960   -0.474500
  H     -2.145430    6.187964   -0.298721
  C      0.212984    3.908583    3.800278
  H     -1.767404    4.704387    3.491836
  H     -0.454172    5.841756    3.078662
  H      0.314149    4.263181    4.821672
  H      1.187168    3.933993    3.319039
  H     -0.157944    2.884938    3.822958

----------------------------
CARTESIAN COORDINATES (A.U.)
----------------------------
  NO LB      ZA    FRAG     MASS         X           Y           Z
   0 C     6.0000    0    12.011   -6.543634   -1.114730    3.572093
   1 C     6.0000    0    12.011   -6.233781   -2.555673    5.759404
   2 C     6.0000    0    12.011   -3.920813   -2.719571    6.923609
   3 C     6.0000    0    12.011   -4.572206    0.319613    2.664006
   4 C     6.0000    0    12.011   -2.227583    0.360653    3.956359
   5 O     8.0000    0    15.999   -4.576871    1.533032    0.368139
   6 C     6.0000    0    12.011   -1.860890   -1.332981    6.004009
   7 C     6.0000    0    12.011    0.619624   -1.694710    6.991822
   8 C     6.0000    0    12.011    2.654402   -0.598325    5.895294
   9 C     6.0000    0    12.011   -0.149481    1.874361    3.164924
  10 C     6.0000    0    12.011    2.337068    1.212544    3.929933
  11 N     7.0000    0    14.007   -0.467015    3.975674    1.716377
  12 C     6.0000    0    12.011    1.504493    5.081885    0.574646
  13 C     6.0000    0    12.011    3.945778    4.250881    0.947803
  14 C     6.0000    0    12.011    4.380659    2.420386    2.764410
  15 C     6.0000    0    12.011   -6.744492    2.069728   -0.959760
  16 O     8.0000    0    15.999   -8.794464    2.389129    0.050896
  17 N     7.0000    0    14.007   -6.287633    2.263960   -3.423383
  18 C     6.0000    0    12.011   -3.813074    1.942253   -4.549022
  19 C     6.0000    0    12.011   -8.282007    3.038972   -5.127146
  20 H     1.0000    0     1.008   -8.641884    1.547671   -6.502442
  21 H     1.0000    0     1.008   -7.727588    4.756280   -6.117275
  22 H     1.0000    0     1.008   -9.995384    3.389589   -4.046957
  23 H     1.0000    0     1.008   -2.858110    3.762010   -4.705004
  24 H     1.0000    0     1.008   -4.060300    1.138227   -6.424999
  25 H     1.0000    0     1.008   -2.669570    0.671551   -3.412580
  26 H     1.0000    0     1.008   -3.655155   -3.950271    8.525263
  27 H     1.0000    0     1.008   -8.328482   -1.126120    2.589821
  28 H     1.0000    0     1.008   -7.824275   -3.615354    6.466056
  29 H     1.0000    0     1.008    0.838186   -2.976257    8.561024
  30 H     1.0000    0     1.008    4.548050   -1.023947    6.512614
  31 H     1.0000    0     1.008    1.056755    6.703385   -0.578531
  32 H     1.0000    0     1.008    5.480484    5.134176   -0.055913
  33 H     1.0000    0     1.008    6.280071    1.916301    3.308870
  34 P    15.0000    0    30.974   -3.064988    6.007239    2.205022
  35 O     8.0000    0    15.999   -5.025908    5.184431    3.974552
  36 O     8.0000    0    15.999   -3.689358    6.643796   -0.621989
  37 O     8.0000    0    15.999   -1.573138    8.436375    3.151313
  38 C     6.0000    0    12.011   -5.862736    8.126882   -1.302997
  39 C     6.0000    0    12.011   -1.450161    9.064207    5.778616
  40 C     6.0000    0    12.011   -5.823362   10.741367   -0.137444
  41 H     1.0000    0     1.008   -7.576404    7.118706   -0.731864
  42 H     1.0000    0     1.008   -5.772511    8.232798   -3.360552
  43 H     1.0000    0     1.008   -6.041232   10.611924    1.904509
  44 H     1.0000    0     1.008   -7.381513   11.840949   -0.896675
  45 H     1.0000    0     1.008   -4.054275   11.693557   -0.564501
  46 C     6.0000    0    12.011    0.402481    7.386152    7.181484
  47 H     1.0000    0     1.008   -3.339909    8.890003    6.598614
  48 H     1.0000    0     1.008   -0.858261   11.039318    5.817828
  49 H     1.0000    0     1.008    0.593656    8.056244    9.111639
  50 H     1.0000    0     1.008    2.243422    7.434169    6.272075
  51 H     1.0000    0     1.008   -0.298471    5.451744    7.224343

--------------------------------
INTERNAL COORDINATES (ANGSTROEM)
--------------------------------
 C      0   0   0     0.000000000000     0.00000000     0.00000000
 C      1   0   0     1.395729330087     0.00000000     0.00000000
 C      2   1   0     1.373014558809   120.75317700     0.00000000
 C      1   2   3     1.376724687995   120.10862186   354.97932637
 C      4   1   2     1.416882475156   120.23380901   359.39033518
 O      4   1   2     1.374171639605   124.39205017   171.13672201
 C      3   2   1     1.401228832163   120.30354330     3.32358218
 C      7   3   2     1.425793426455   121.23607096   187.42402924
 C      8   7   3     1.353779268124   121.16915111   171.53016370
 C      5   4   1     1.423495616630   122.89450907   182.32860010
 C     10   5   4     1.420539582794   119.53811795   202.04140888
 N     10   5   4     1.360987333869   122.01098980    23.01506211
 C     12  10   5     1.340197670092   120.97513480   193.48550584
 C     13  12  10     1.378878233215   121.69999755   355.61064241
 C     14  13  12     1.383967279589   118.58598033   352.57456695
 C      6   4   1     1.374836749768   123.36046875    19.28608658
 O     16   6   4     1.221222056768   123.08454701    27.43646734
 N     16   6   4     1.329898130212   111.42823053   205.53008040
 C     18  16   6     1.448631575152   123.94043836     0.12201207
 C     18  16   6     1.447372709244   119.99920459   185.38533888
 H     20  18  16     1.090275416851   109.75952225   240.79916007
 H     20  18  16     1.089242015739   109.85505609   120.64374913
 H     20  18  16     1.087765277134   109.19434668     0.45668178
 H     19  18  16     1.090644361160   110.25483504   267.54281272
 H     19  18  16     1.087954101282   108.20736340   147.94790340
 H     19  18  16     1.086268792192   110.40500434    28.40471897
 H      3   2   1     1.078079652478   120.47480646   184.86671101
 H      1   2   3     1.078103436013   119.98029242   174.89727308
 H      2   1   3     1.078269804394   118.68660848   183.06240136
 H      8   7   3     1.078343954414   117.74225258   355.78426870
 H      9   8   7     1.077774397478   121.33451290   186.60230422
 H     13  12  10     1.079255585053   115.54821867   178.21246099
 H     14  13  12     1.077103404728   119.82833083   177.56848338
 H     15  14  13     1.079093858651   120.88782835   189.07937085
 P     12  10   5     1.764272095635   120.76481236    38.10230899
 O     35  12  10     1.463962798201   117.70038162   352.07088539
 O     35  12  10     1.568635887583    98.92879404   219.05213575
 O     35  12  10     1.589451713519    98.73948453   113.91389035
 C     37  35  12     1.438242012696   121.63952341   174.72817487
 C     38  35  12     1.430934639499   121.09542934   258.41482094
 C     39  37  35     1.514925514127   112.66443050    59.62966144
 H     39  37  35     1.094676775129   109.10608899   296.99659311
 H     39  37  35     1.091297737095   104.06573190   179.98495867
 H     41  39  37     1.088845269967   110.18971504   292.49075843
 H     41  39  37     1.086212314004   109.15919841   173.20669955
 H     41  39  37     1.086903877905   110.52240986    53.10979493
 C     40  38  35     1.516828147404   111.65364153    76.27652558
 H     40  38  35     1.093988526961   108.91993759   314.19300595
 H     40  38  35     1.091305061848   104.70808808   197.02031586
 H     47  40  38     1.085918885492   109.23153910   173.77349020
 H     47  40  38     1.086862656656   110.42217384    53.93480058
 H     47  40  38     1.089013552966   109.89697340   292.82913845

---------------------------
INTERNAL COORDINATES (A.U.)
---------------------------
 C      0   0   0     0.000000000000     0.00000000     0.00000000
 C      1   0   0     2.637546190946     0.00000000     0.00000000
 C      2   1   0     2.594621494036   120.75317700     0.00000000
 C      1   2   3     2.601632622118   120.10862186   354.97932637
 C      4   1   2     2.677519841997   120.23380901   359.39033518
 O      4   1   2     2.596808059854   124.39205017   171.13672201
 C      3   2   1     2.647938743743   120.30354330     3.32358218
 C      7   3   2     2.694359099546   121.23607096   187.42402924
 C      8   7   3     2.558272062535   121.16915111   171.53016370
 C      5   4   1     2.690016868269   122.89450907   182.32860010
 C     10   5   4     2.684430773876   119.53811795   202.04140888
 N     10   5   4     2.571893332747   122.01098980    23.01506211
 C     12  10   5     2.532606561793   120.97513480   193.48550584
 C     13  12  10     2.605702232801   121.69999755   355.61064241
 C     14  13  12     2.615319136731   118.58598033   352.57456695
 C      6   4   1     2.598064935912   123.36046875    19.28608658
 O     16   6   4     2.307775235995   123.08454701    27.43646734
 N     16   6   4     2.513143252115   111.42823053   205.53008040
 C     18  16   6     2.737516945989   123.94043836     0.12201207
 C     18  16   6     2.735138034183   119.99920459   185.38533888
 H     20  18  16     2.060321948395   109.75952225   240.79916007
 H     20  18  16     2.058369103307   109.85505609   120.64374913
 H     20  18  16     2.055578471773   109.19434668     0.45668178
 H     19  18  16     2.061019152098   110.25483504   267.54281272
 H     19  18  16     2.055935297699   108.20736340   147.94790340
 H     19  18  16     2.052750525069   110.40500434    28.40471897
 H      3   2   1     2.037275293736   120.47480646   184.86671101
 H      1   2   3     2.037320238104   119.98029242   174.89727308
 H      2   1   3     2.037634628781   118.68660848   183.06240136
 H      8   7   3     2.037774752012   117.74225258   355.78426870
 H      9   8   7     2.036698445384   121.33451290   186.60230422
 H     13  12  10     2.039497484256   115.54821867   178.21246099
 H     14  13  12     2.035430452850   119.82833083   177.56848338
 H     15  14  13     2.039191865647   120.88782835   189.07937085
 P     12  10   5     3.333991086469   120.76481236    38.10230899
 O     35  12  10     2.766488758849   117.70038162   352.07088539
 O     35  12  10     2.964292231373    98.92879404   219.05213575
 O     35  12  10     3.003628441643    98.73948453   113.91389035
 C     37  35  12     2.717883518294   121.63952341   174.72817487
 C     38  35  12     2.704074584194   121.09542934   258.41482094
 C     39  37  35     2.862794334990   112.66443050    59.62966144
 H     39  37  35     2.068639310157   109.10608899   296.99659311
 H     39  37  35     2.062253853677   104.06573190   179.98495867
 H     41  39  37     2.057619362452   110.18971504   292.49075843
 H     41  39  37     2.052643796761   109.15919841   173.20669955
 H     41  39  37     2.053950663137   110.52240986    53.10979493
 C     40  38  35     2.866389790817   111.65364153    76.27652558
 H     40  38  35     2.067338709609   108.91993759   314.19300595
 H     40  38  35     2.062267695456   104.70808808   197.02031586
 H     47  40  38     2.052089297234   109.23153910   173.77349020
 H     47  40  38     2.053872766266   110.42217384    53.93480058
 H     47  40  38     2.057937371233   109.89697340   292.82913845

---------------------
BASIS SET INFORMATION
---------------------
There are 5 groups of distinct atoms

 Group   1 Type C   : 11s5p1d contracted to 4s3p1d pattern {6311/311/1}
 Group   2 Type O   : 11s5p1d contracted to 4s3p1d pattern {6311/311/1}
 Group   3 Type N   : 11s5p1d contracted to 4s3p1d pattern {6311/311/1}
 Group   4 Type H   : 5s contracted to 3s pattern {311}
 Group   5 Type P   : 13s9p1d contracted to 6s5p1d pattern {631111/42111/1}

Atom   0C    basis set group =>   1
Atom   1C    basis set group =>   1
Atom   2C    basis set group =>   1
Atom   3C    basis set group =>   1
Atom   4C    basis set group =>   1
Atom   5O    basis set group =>   2
Atom   6C    basis set group =>   1
Atom   7C    basis set group =>   1
Atom   8C    basis set group =>   1
Atom   9C    basis set group =>   1
Atom  10C    basis set group =>   1
Atom  11N    basis set group =>   3
Atom  12C    basis set group =>   1
Atom  13C    basis set group =>   1
Atom  14C    basis set group =>   1
Atom  15C    basis set group =>   1
Atom  16O    basis set group =>   2
Atom  17N    basis set group =>   3
Atom  18C    basis set group =>   1
Atom  19C    basis set group =>   1
Atom  20H    basis set group =>   4
Atom  21H    basis set group =>   4
Atom  22H    basis set group =>   4
Atom  23H    basis set group =>   4
Atom  24H    basis set group =>   4
Atom  25H    basis set group =>   4
Atom  26H    basis set group =>   4
Atom  27H    basis set group =>   4
Atom  28H    basis set group =>   4
Atom  29H    basis set group =>   4
Atom  30H    basis set group =>   4
Atom  31H    basis set group =>   4
Atom  32H    basis set group =>   4
Atom  33H    basis set group =>   4
Atom  34P    basis set group =>   5
Atom  35O    basis set group =>   2
Atom  36O    basis set group =>   2
Atom  37O    basis set group =>   2
Atom  38C    basis set group =>   1
Atom  39C    basis set group =>   1
Atom  40C    basis set group =>   1
Atom  41H    basis set group =>   4
Atom  42H    basis set group =>   4
Atom  43H    basis set group =>   4
Atom  44H    basis set group =>   4
Atom  45H    basis set group =>   4
Atom  46C    basis set group =>   1
Atom  47H    basis set group =>   4
Atom  48H    basis set group =>   4
Atom  49H    basis set group =>   4
Atom  50H    basis set group =>   4
Atom  51H    basis set group =>   4
---------------------------------
AUXILIARY/J BASIS SET INFORMATION
---------------------------------
There are 5 groups of distinct atoms

 Group   1 Type C   : 12s5p4d2f1g contracted to 6s4p3d1f1g pattern {711111/2111/211/2/1}
 Group   2 Type O   : 12s5p4d2f1g contracted to 6s4p3d1f1g pattern {711111/2111/211/2/1}
 Group   3 Type N   : 12s5p4d2f1g contracted to 6s4p3d1f1g pattern {711111/2111/211/2/1}
 Group   4 Type H   : 5s2p1d contracted to 3s1p1d pattern {311/2/1}
 Group   5 Type P   : 14s5p5d2f1g contracted to 8s4p3d1f1g pattern {71111111/2111/311/2/1}

Atom   0C    basis set group =>   1
Atom   1C    basis set group =>   1
Atom   2C    basis set group =>   1
Atom   3C    basis set group =>   1
Atom   4C    basis set group =>   1
Atom   5O    basis set group =>   2
Atom   6C    basis set group =>   1
Atom   7C    basis set group =>   1
Atom   8C    basis set group =>   1
Atom   9C    basis set group =>   1
Atom  10C    basis set group =>   1
Atom  11N    basis set group =>   3
Atom  12C    basis set group =>   1
Atom  13C    basis set group =>   1
Atom  14C    basis set group =>   1
Atom  15C    basis set group =>   1
Atom  16O    basis set group =>   2
Atom  17N    basis set group =>   3
Atom  18C    basis set group =>   1
Atom  19C    basis set group =>   1
Atom  20H    basis set group =>   4
Atom  21H    basis set group =>   4
Atom  22H    basis set group =>   4
Atom  23H    basis set group =>   4
Atom  24H    basis set group =>   4
Atom  25H    basis set group =>   4
Atom  26H    basis set group =>   4
Atom  27H    basis set group =>   4
Atom  28H    basis set group =>   4
Atom  29H    basis set group =>   4
Atom  30H    basis set group =>   4
Atom  31H    basis set group =>   4
Atom  32H    basis set group =>   4
Atom  33H    basis set group =>   4
Atom  34P    basis set group =>   5
Atom  35O    basis set group =>   2
Atom  36O    basis set group =>   2
Atom  37O    basis set group =>   2
Atom  38C    basis set group =>   1
Atom  39C    basis set group =>   1
Atom  40C    basis set group =>   1
Atom  41H    basis set group =>   4
Atom  42H    basis set group =>   4
Atom  43H    basis set group =>   4
Atom  44H    basis set group =>   4
Atom  45H    basis set group =>   4
Atom  46C    basis set group =>   1
Atom  47H    basis set group =>   4
Atom  48H    basis set group =>   4
Atom  49H    basis set group =>   4
Atom  50H    basis set group =>   4
Atom  51H    basis set group =>   4
------------------------------------------------------------------------------
                             ORCA STARTUP CALCULATIONS
                           -- RI-GTO INTEGRALS CHOSEN --
------------------------------------------------------------------------------
------------------------------------------------------------------------------
                   ___                                                        
                  /   \      - P O W E R E D   B Y -                         
                 /     \                                                     
                 |  |  |   _    _      __       _____    __    __             
                 |  |  |  | |  | |    /  \     |  _  \  |  |  /  |          
                  \  \/   | |  | |   /    \    | | | |  |  | /  /          
                 / \  \   | |__| |  /  /\  \   | |_| |  |  |/  /          
                |  |  |   |  __  | /  /__\  \  |    /   |      \           
                |  |  |   | |  | | |   __   |  |    \   |  |\   \          
                \     /   | |  | | |  |  |  |  | |\  \  |  | \   \       
                 \___/    |_|  |_| |__|  |__|  |_| \__\ |__|  \__/        
                                                                              
                      - O R C A' S   B I G   F R I E N D -                    
                                      &                                       
                       - I N T E G R A L  F E E D E R -                       
                                                                              
 v1 FN, 2020, v2 2021, v3 2022-2024                                           
------------------------------------------------------------------------------


----------------------
SHARK INTEGRAL PACKAGE
----------------------

Number of atoms                             ...     52
Number of basis functions                   ...    584
Number of shells                            ...    300
Maximum angular momentum                    ...      2
Integral batch strategy                     ... SHARK/LIBINT Hybrid
RI-J (if used) integral strategy            ... SPLIT-RIJ (Revised 2003 algorithm where possible)
Printlevel                                  ...      1
Contraction scheme used                     ... SEGMENTED contraction
Prescreening option                         ... SCHWARTZ
   Thresh                                   ... 2.500e-11
   Tcut                                     ... 2.500e-12
   Tpresel                                  ... 2.500e-12 
Coulomb Range Separation                    ... NOT USED
Exchange Range Separation                   ... NOT USED
Multipole approximations                    ... NOT USED
Finite Nucleus Model                        ... NOT USED
CABS basis                                  ... NOT available
Auxiliary Coulomb fitting basis             ... AVAILABLE
   # of basis functions in Aux-J            ...   1638
   # of shells in Aux-J                     ...    542
   Maximum angular momentum in Aux-J        ...      4
Auxiliary J/K fitting basis                 ... NOT available
Auxiliary Correlation fitting basis         ... NOT available
Auxiliary 'external' fitting basis          ... NOT available

Checking pre-screening integrals            ... done (  0.0 sec) Dimension = 300
Check shell pair data                       ... done (  0.0 sec)
Shell pair information
Shell pair cut-off parameter TPreSel        ...   2.5e-12
Total number of shell pairs                 ...     45150
Shell pairs after pre-screening             ...     30836
Total number of primitive shell pairs       ...    182167
Primitive shell pairs kept                  ...     72174
          la=0 lb=0:  11142 shell pairs
          la=1 lb=0:  11400 shell pairs
          la=1 lb=1:   2953 shell pairs
          la=2 lb=0:   3288 shell pairs
          la=2 lb=1:   1775 shell pairs
          la=2 lb=2:    278 shell pairs

Calculating one electron integrals          ... done (  0.1 sec)
Calculating RI/J V-Matrix + Cholesky decomp.... done (  0.5 sec)
Calculating Nuclear repulsion               ... done (  0.0 sec) ENN=   3220.798909637792 Eh

Diagonalization of the overlap matrix:
Smallest eigenvalue                        ... 8.591e-05
Time for diagonalization                   ...    0.032 sec
Threshold for overlap eigenvalues          ... 1.000e-07
Number of eigenvalues below threshold      ... 0
Time for construction of square roots      ...    0.041 sec
Total time needed                          ...    0.082 sec

-------------------
DFT GRID GENERATION
-------------------

General Integration Accuracy     IntAcc      ... 4.388
Radial Grid Type                 RadialGrid  ... OptM3 with GC (2021)
Angular Grid (max. ang.)         AngularGrid ... 4 (Lebedev-302)
Angular grid pruning method      GridPruning ... 4 (adaptive)
Weight generation scheme         WeightScheme... mBecke (2022)
Basis function cutoff            BFCut       ... 1.0000e-11
Integration weight cutoff        WCut        ... 1.0000e-14
Partially contracted basis set               ... off
Rotationally invariant grid construction     ... off
Angular grids for H and He will be reduced by one unit

Total number of grid points                  ...   243664
Total number of batches                      ...     3832
Average number of points per batch           ...       63
Average number of grid points per atom       ...     4686

--------------------
COSX GRID GENERATION
--------------------

GRIDX 1
-------
General Integration Accuracy     IntAcc      ... 3.816
Radial Grid Type                 RadialGrid  ... OptM3 with GC (2021)
Angular Grid (max. ang.)         AngularGrid ... 1 (Lebedev-50)
Angular grid pruning method      GridPruning ... 4 (adaptive)
Weight generation scheme         WeightScheme... mBecke (2022)
Basis function cutoff            BFCut       ... 1.0000e-11
Integration weight cutoff        WCut        ... 1.0000e-14
Partially contracted basis set               ... on
Rotationally invariant grid construction     ... off
Angular grids for H and He will be reduced by one unit

Total number of grid points                  ...    31886
Total number of batches                      ...      278
Average number of points per batch           ...      114
Average number of grid points per atom       ...      613
UseSFitting                                  ... on

GRIDX 2
-------
General Integration Accuracy     IntAcc      ... 4.020
Radial Grid Type                 RadialGrid  ... OptM3 with GC (2021)
Angular Grid (max. ang.)         AngularGrid ... 2 (Lebedev-110)
Angular grid pruning method      GridPruning ... 4 (adaptive)
Weight generation scheme         WeightScheme... mBecke (2022)
Basis function cutoff            BFCut       ... 1.0000e-11
Integration weight cutoff        WCut        ... 1.0000e-14
Partially contracted basis set               ... on
Rotationally invariant grid construction     ... off
Angular grids for H and He will be reduced by one unit

Total number of grid points                  ...    66166
Total number of batches                      ...      544
Average number of points per batch           ...      121
Average number of grid points per atom       ...     1272
UseSFitting                                  ... on

GRIDX 3
-------
General Integration Accuracy     IntAcc      ... 4.338
Radial Grid Type                 RadialGrid  ... OptM3 with GC (2021)
Angular Grid (max. ang.)         AngularGrid ... 3 (Lebedev-194)
Angular grid pruning method      GridPruning ... 4 (adaptive)
Weight generation scheme         WeightScheme... mBecke (2022)
Basis function cutoff            BFCut       ... 1.0000e-11
Integration weight cutoff        WCut        ... 1.0000e-14
Partially contracted basis set               ... on
Rotationally invariant grid construction     ... off
Angular grids for H and He will be reduced by one unit

Total number of grid points                  ...   144506
Total number of batches                      ...     1156
Average number of points per batch           ...      125
Average number of grid points per atom       ...     2779
UseSFitting                                  ... on
Initializing property integral containers    ... done (  0.0 sec)

SHARK setup successfully completed in   9.2 seconds

Maximum memory used throughout the entire STARTUP-calculation: 130.9 MB
-------------------------------------------------------------------------------
                                 ORCA GUESS
                   Start orbitals & Density for SCF / CASSCF
-------------------------------------------------------------------------------

------------
SCF SETTINGS
------------
Hamiltonian:
 Density Functional     Method          .... DFT(GTOs)
 Exchange Functional    Exchange        .... B88
   X-Alpha parameter    XAlpha          ....  0.666667
   Becke's b parameter  XBeta           ....  0.004200
 Correlation Functional Correlation     .... LYP
 LDA part of GGA corr.  LDAOpt          .... VWN-3
 Gradients option       PostSCFGGA      .... off
 Hybrid DFT is turned on
   Fraction HF Exchange ScalHFX         ....  0.200000
   Scaling of DF-GGA-X  ScalDFX         ....  0.720000
   Scaling of DF-GGA-C  ScalDFC         ....  0.810000
   Scaling of DF-LDA-C  ScalLDAC        ....  1.000000
   Perturbative correction              ....  0.000000
   NL short-range parameter             ....  4.800000
 RI-approximation to the Coulomb term is turned on
   Number of AuxJ basis functions       .... 1638
   RIJ-COSX (HFX calculated with COS-X)).... on


General Settings:
 Integral files         IntName         .... 4
 Hartree-Fock type      HFTyp           .... RHF
 Total Charge           Charge          ....    1
 Multiplicity           Mult            ....    1
 Number of Electrons    NEL             ....  212
 Basis Dimension        Dim             ....  584
 Nuclear Repulsion      ENuc            ....   3220.7989096378 Eh

Convergence Acceleration:
 AO-DIIS                CNVDIIS         .... on
   Start iteration      DIISMaxIt       ....    12
   Startup error        DIISStart       ....  0.200000
   # of expansion vecs  DIISMaxEq       ....     5
   Bias factor          DIISBfac        ....   1.050
   Max. coefficient     DIISMaxC        ....  10.000
 MO-DIIS                CNVKDIIS        .... off
 Trust-Rad. Augm. Hess. CNVTRAH         .... auto
   Auto Start mean grad. ratio tolernc. ....  1.125000
   Auto Start start iteration           ....    50
   Auto Start num. interpolation iter.  ....    10
   Max. Number of Micro iterations      ....    24
   Max. Number of Macro iterations      .... Maxiter - #DIIS iter
   Number of Davidson start vectors     ....     2
   Converg. threshold    (grad. norm)   ....   1.000e-05
   Grad. Scal. Fac. for Micro threshold ....   0.100
   Minimum threshold for Micro iter.    ....   1.000e-02
   NR start threshold (gradient norm)   ....   1.000e-04
   Initial trust radius                 ....   0.400
   Minimum AH scaling param. (alpha)    ....   1.000
   Maximum AH scaling param. (alpha)    .... 1000.000
   Quad. conv. algorithm                .... NR
   White noise on init. David. guess    .... on
   Maximum white noise                  ....   0.010
   Pseudo random numbers                .... off
   Inactive MOs                         .... canonical
   Orbital update algorithm             .... Taylor
   Preconditioner                       .... Diag
   Full preconditioner red. dimension   ....   250
 SOSCF                  CNVSOSCF        .... on
   Start iteration      SOSCFMaxIt      ....   150
   Startup grad/error   SOSCFStart      ....  0.003300
   Hessian update       SOSCFHessUp     .... L-BFGS
 Level Shifting         CNVShift        .... on
   Level shift para.    LevelShift      ....    0.2500
   Turn off err/grad.   ShiftErr        ....    0.0010
 Zerner damping         CNVZerner       .... off
 Static damping         CNVDamp         .... on
   Fraction old density DampFac         ....    0.7000
   Max. Damping (<1)    DampMax         ....    0.9800
   Min. Damping (>=0)   DampMin         ....    0.0000
   Turn off err/grad.   DampErr         ....    0.1000

SCF Procedure:
 Maximum # iterations   MaxIter         ....   125
 SCF integral mode      SCFMode         .... Direct
   Integral package                     .... SHARK and LIBINT hybrid scheme
 Reset frequency        DirectResetFreq ....    20
 Integral Threshold     Thresh          ....  2.500e-11 Eh
 Primitive CutOff       TCut            ....  2.500e-12 Eh

Convergence Tolerance:
 Convergence Check Mode ConvCheckMode   .... Total+1el-Energy
 Convergence forced     ConvForced      .... 0
 Energy Change          TolE            ....  1.000e-08 Eh
 1-El. energy change                    ....  1.000e-05 Eh
 Orbital Gradient       TolG            ....  1.000e-05
 Orbital Rotation angle TolX            ....  1.000e-05
 DIIS Error             TolErr          ....  5.000e-07

------------------------------
INITIAL GUESS: MODEL POTENTIAL
------------------------------
Loading Hartree-Fock densities                     ... done
Calculating cut-offs                               ... done
Initializing the effective Hamiltonian             ... done
Setting up the integral package (SHARK)            ... done
Starting the Coulomb interaction                   ... done (   1.5 sec)
Making the grid                                    ... done (   0.8 sec)
Mapping shells                                     ... done
Starting the XC term evaluation                    ... done (   0.6 sec)
  promolecular density results
     # of electrons  =    213.000025352
     EX              =   -187.064792055
     EC              =     -7.428773469
     EX+EC           =   -194.493565523
Transforming the Hamiltonian                       ... done (   0.0 sec)
Diagonalizing the Hamiltonian                      ... done (   0.0 sec)
Back transforming the eigenvectors                 ... done (   0.0 sec)
Now organizing SCF variables                       ... done
                      ------------------
                      INITIAL GUESS DONE (   3.1 sec)
                      ------------------
             **** ENERGY FILE WAS UPDATED (4.en.tmp) ****
Finished Guess after   4.1 sec
Maximum memory used throughout the entire GUESS-calculation: 82.1 MB

-------------------------------------------------------------------------------------------
                                      ORCA LEAN-SCF
                              memory conserving SCF solver
-------------------------------------------------------------------------------------------

--------------------
CPCM SOLVATION MODEL
--------------------
CPCM parameters:
  Epsilon                                         ...      80.1510
  Refrac                                          ...       1.3328
  Rsolv                                           ...       1.3000
  Surface type                                    ... GAUSSIAN VDW
  Discretization scheme                           ... Constant charge density
    Threshold for H atoms                         ...       5.0000 (charges/Ang^2)
    Threshold for non-H atoms                     ...       5.0000 (charges/Ang^2)
  Epsilon function type                           ...         CPCM
Solvent:                                          ... WATER
Radii:
  Scheme                                          ... Element-dependent radii
  Radius for C  used is    3.8550 Bohr (=   2.0400 Ang.)
  Radius for O  used is    3.4469 Bohr (=   1.8240 Ang.)
  Radius for N  used is    3.5149 Bohr (=   1.8600 Ang.)
  Radius for H  used is    2.4944 Bohr (=   1.3200 Ang.)
  Radius for P  used is    4.0818 Bohr (=   2.1600 Ang.)
Calculating surface                               ...        done! (  0.0s)
Cavity surface points                             ...         4166
Cavity Volume                                     ...    3022.2814
Cavity Surface-area                               ...    1430.4062
Calculating surface distance matrix               ...        done! (  0.1s)
Performing Cholesky decomposition & store         ...        done! (  2.3s)
Overall time for CPCM initialization              ...                 2.4s

----------------------------------------D-I-I-S--------------------------------------------
Iteration    Energy (Eh)           Delta-E    RMSDP     MaxDP     DIISErr   Damp  Time(sec)
-------------------------------------------------------------------------------------------
               ***  Starting incremental Fock matrix formation  ***
    1    -1602.9672061496748938     0.00e+00  1.75e-03  1.21e-01  4.09e-01  0.700  38.4
    2    -1603.3616263282001455    -3.94e-01  1.07e-03  5.49e-02  1.38e-01  0.700  19.8
                               ***Turning on AO-DIIS***
    3    -1603.5058894141320707    -1.44e-01  3.89e-04  1.45e-02  4.76e-02  0.700  20.2
    4    -1603.5969592792034746    -9.11e-02  6.75e-04  2.66e-02  2.22e-02  0.000  18.7
    5    -1603.7994240860598438    -2.02e-01  1.47e-04  6.53e-03  6.56e-03  0.000  18.7
                              *** Initializing SOSCF ***
---------------------------------------S-O-S-C-F--------------------------------------
Iteration    Energy (Eh)           Delta-E    RMSDP     MaxDP     MaxGrad    Time(sec)
--------------------------------------------------------------------------------------
    6    -1603.8004125155057409    -9.88e-04  4.45e-05  1.48e-03  2.04e-03    16.8
               *** Restarting incremental Fock matrix formation ***
    7    -1603.8004017799421490     1.07e-05  3.51e-05  1.41e-03  4.03e-04    37.5
    8    -1603.8003819797995675     1.98e-05  2.03e-05  8.72e-04  8.72e-04    25.5
    9    -1603.8004172652517809    -3.53e-05  2.68e-06  1.03e-04  2.67e-05    21.6
   10    -1603.8004172137507339     5.15e-08  1.25e-06  7.21e-05  4.05e-05    17.0
   11    -1603.8004173688887022    -1.55e-07  8.88e-07  3.62e-05  9.97e-06    16.1
   12    -1603.8004173384324531     3.05e-08  4.46e-07  1.94e-05  8.74e-06    16.3
   13    -1603.8004173653725957    -2.69e-08  1.53e-07  4.74e-06  1.11e-06    12.9
                  *** Gradient check signals convergence ***

               *****************************************************
               *                     SUCCESS                       *
               *           SCF CONVERGED AFTER  13 CYCLES          *
               *****************************************************

Recomputing exchange energy using gridx3       ... done (   58.547 sec)
Old exchange energy                            :    -37.912273284 Eh
New exchange energy                            :    -37.912296486 Eh
Exchange energy change after final integration :     -0.000023202 Eh
Total energy after final integration           :  -1603.800440567 Eh
             **** ENERGY FILE WAS UPDATED (4.en.tmp) ****

----------------
TOTAL SCF ENERGY
----------------

Total Energy       :      -1603.80044056737711 Eh          -43641.62869 eV

Components:
Nuclear Repulsion  :       3220.79890963779235 Eh           87642.39398 eV
Electronic Energy  :      -4824.51567657903797 Eh         -131281.74579 eV
One Electron Energy:      -8574.21640058924277 Eh         -233316.28983 eV
Two Electron Energy:       3749.70072401020525 Eh          102034.54404 eV
CPCM Dielectric    :         -0.08365042412754 Eh              -2.27624 eV

Virial components:
Potential Energy   :      -3203.23802074616924 Eh          -87164.53790 eV
Kinetic Energy     :       1599.43758017879213 Eh           43522.90922 eV
Virial Ratio       :          2.00272774657958

DFT components:
N(Alpha)           :      105.999814944200 electrons
N(Beta)            :      105.999814944200 electrons
N(Total)           :      211.999629888399 electrons
E(X)               :     -150.673659439895 Eh       
E(C)               :       -9.482120863759 Eh       
E(XC)              :     -160.155780303654 Eh       

CPCM Solvation Model Properties:
Surface-charge          :         -1.02899773862903
Corrected charge        :         -1.00000000000000
Outlying charge corr.   :          0.00004250080806 Eh               0.00116 eV
Free-energy (cav+disp)  :  This term is not implemented in the current solvation scheme

---------------
SCF CONVERGENCE
---------------

  Last Energy change         ...    2.6940e-08  Tolerance :   1.0000e-08
  Last MAX-Density change    ...    4.7422e-06  Tolerance :   1.0000e-07
  Last RMS-Density change    ...    1.5268e-07  Tolerance :   5.0000e-09
  Last DIIS Error            ...    2.0448e-03  Tolerance :   5.0000e-07
  Last Orbital Gradient      ...    1.1145e-06  Tolerance :   1.0000e-05
  Last Orbital Rotation      ...    5.5024e-06  Tolerance :   1.0000e-05


----------------
ORBITAL ENERGIES
----------------

  NO   OCC          E(Eh)            E(eV) 
   0   2.0000     -77.226159     -2101.4306 
   1   2.0000     -19.196452      -522.3620 
   2   2.0000     -19.183312      -522.0045 
   3   2.0000     -19.171884      -521.6935 
   4   2.0000     -19.121429      -520.3205 
   5   2.0000     -19.103673      -519.8374 
   6   2.0000     -14.432776      -392.7358 
   7   2.0000     -14.359209      -390.7339 
   8   2.0000     -10.334660      -281.2204 
   9   2.0000     -10.279025      -279.7065 
  10   2.0000     -10.272649      -279.5330 
  11   2.0000     -10.271456      -279.5005 
  12   2.0000     -10.242573      -278.7146 
  13   2.0000     -10.236669      -278.5539 
  14   2.0000     -10.234817      -278.5035 
  15   2.0000     -10.231630      -278.4168 
  16   2.0000     -10.220638      -278.1177 
  17   2.0000     -10.218952      -278.0718 
  18   2.0000     -10.215954      -277.9902 
  19   2.0000     -10.201925      -277.6085 
  20   2.0000     -10.201212      -277.5891 
  21   2.0000     -10.198456      -277.5141 
  22   2.0000     -10.198438      -277.5136 
  23   2.0000     -10.196237      -277.4537 
  24   2.0000     -10.189957      -277.2828 
  25   2.0000     -10.188650      -277.2472 
  26   2.0000     -10.165938      -276.6292 
  27   2.0000     -10.165853      -276.6269 
  28   2.0000      -6.708672      -182.5522 
  29   2.0000      -4.870835      -132.5421 
  30   2.0000      -4.870209      -132.5251 
  31   2.0000      -4.869560      -132.5075 
  32   2.0000      -1.146178       -31.1891 
  33   2.0000      -1.130027       -30.7496 
  34   2.0000      -1.076046       -29.2807 
  35   2.0000      -1.051893       -28.6235 
  36   2.0000      -1.041870       -28.3507 
  37   2.0000      -1.015872       -27.6433 
  38   2.0000      -0.965010       -26.2593 
  39   2.0000      -0.914341       -24.8805 
  40   2.0000      -0.878240       -23.8981 
  41   2.0000      -0.849951       -23.1284 
  42   2.0000      -0.822061       -22.3694 
  43   2.0000      -0.792769       -21.5724 
  44   2.0000      -0.784446       -21.3459 
  45   2.0000      -0.774143       -21.0655 
  46   2.0000      -0.771229       -20.9862 
  47   2.0000      -0.734480       -19.9862 
  48   2.0000      -0.726770       -19.7764 
  49   2.0000      -0.712183       -19.3795 
  50   2.0000      -0.697488       -18.9796 
  51   2.0000      -0.685471       -18.6526 
  52   2.0000      -0.669607       -18.2209 
  53   2.0000      -0.652843       -17.7648 
  54   2.0000      -0.652052       -17.7432 
  55   2.0000      -0.613674       -16.6989 
  56   2.0000      -0.604468       -16.4484 
  57   2.0000      -0.569646       -15.5009 
  58   2.0000      -0.564298       -15.3553 
  59   2.0000      -0.560262       -15.2455 
  60   2.0000      -0.551808       -15.0155 
  61   2.0000      -0.547118       -14.8878 
  62   2.0000      -0.543402       -14.7867 
  63   2.0000      -0.518808       -14.1175 
  64   2.0000      -0.515053       -14.0153 
  65   2.0000      -0.510513       -13.8918 
  66   2.0000      -0.504955       -13.7405 
  67   2.0000      -0.500614       -13.6224 
  68   2.0000      -0.498627       -13.5683 
  69   2.0000      -0.490199       -13.3390 
  70   2.0000      -0.482003       -13.1160 
  71   2.0000      -0.469469       -12.7749 
  72   2.0000      -0.465193       -12.6586 
  73   2.0000      -0.460699       -12.5363 
  74   2.0000      -0.458268       -12.4701 
  75   2.0000      -0.456499       -12.4220 
[...]
133:   3041.79   0.002721   13.75  0.000279  (-0.013999  0.005746 -0.007084)
134:   3043.24   0.018264   92.30  0.001873  ( 0.000388  0.000533 -0.043271)
135:   3048.23   0.004399   22.23  0.000450  (-0.002357 -0.005286  0.020416)
136:   3087.58   0.004341   21.94  0.000439  (-0.014950  0.012574  0.007557)
137:   3089.19   0.014436   72.95  0.001458  ( 0.009562  0.036848  0.003023)
138:   3095.02   0.003674   18.57  0.000370  ( 0.003508  0.018702 -0.002898)
139:   3096.80   0.001383    6.99  0.000139  (-0.009162  0.007020  0.002474)
140:   3108.17   0.009584   48.43  0.000962  ( 0.005251 -0.027053 -0.014239)
141:   3113.33   0.010791   54.53  0.001082  ( 0.026011 -0.004759 -0.019555)
142:   3113.40   0.003184   16.09  0.000319  (-0.013472  0.011348 -0.002978)
143:   3120.46   0.002876   14.53  0.000288  ( 0.001200  0.014667  0.008428)
144:   3150.08   0.009126   46.12  0.000904  (-0.022127 -0.018985 -0.007347)
145:   3157.24   0.005636   28.48  0.000557  ( 0.008292  0.021069 -0.006661)
146:   3179.30   0.001361    6.88  0.000134  (-0.009715  0.002994  0.005502)
147:   3187.03   0.000667    3.37  0.000065  (-0.007745 -0.002266 -0.000481)
148:   3191.29   0.000360    1.82  0.000035  ( 0.004020 -0.001282  0.004169)
149:   3197.63   0.001782    9.01  0.000174  (-0.009189  0.004365 -0.008393)
150:   3201.18   0.004966   25.09  0.000484  (-0.011513 -0.015893  0.009946)
151:   3203.41   0.000272    1.38  0.000027  (-0.003638 -0.002748  0.002397)
152:   3206.53   0.002664   13.46  0.000259  (-0.007543  0.010605 -0.009484)
153:   3233.12   0.000279    1.41  0.000027  (-0.000701  0.004609 -0.002274)
154:   3242.89   0.000027    0.14  0.000003  (-0.000337  0.000135  0.001574)
155:   3252.28   0.002142   10.83  0.000206  ( 0.000099  0.013269 -0.005429)

* The epsilon (eps) is given for a Dirac delta lineshape.
** The dipole moment derivative (T) already includes vibrational overlap.

The first frequency considered to be a vibration is 6
The total number of vibrations considered is 150


--------------------------
THERMOCHEMISTRY AT 298.15K
--------------------------

Temperature         ...   298.15 K
Pressure            ...     1.00 atm
Total Mass          ...   403.39 AMU
Quasi RRHO          ...     True
Cut-Off Frequency   ...     1.00 cm^-1

Throughout the following assumptions are being made:
  (1) The electronic state is orbitally nondegenerate
  (2) There are no thermally accessible electronically excited states
  (3) Hindered rotations indicated by low frequency modes are not
      treated as such but are treated as vibrations and this may
      cause some error
  (4) All equations used are the standard statistical mechanics
      equations for an ideal gas
  (5) All vibrations are strictly harmonic

freq.      24.09  E(vib)   ...       0.56 
freq.      29.79  E(vib)   ...       0.55 
freq.      33.46  E(vib)   ...       0.55 
freq.      38.11  E(vib)   ...       0.54 
freq.      47.07  E(vib)   ...       0.53 
freq.      53.66  E(vib)   ...       0.52 
freq.      56.45  E(vib)   ...       0.52 
freq.      64.63  E(vib)   ...       0.50 
freq.      73.20  E(vib)   ...       0.49 
freq.      74.56  E(vib)   ...       0.49 
freq.      87.68  E(vib)   ...       0.48 
freq.      97.02  E(vib)   ...       0.46 
freq.     104.55  E(vib)   ...       0.46 
freq.     124.81  E(vib)   ...       0.43 
freq.     133.94  E(vib)   ...       0.42 
freq.     152.54  E(vib)   ...       0.40 
freq.     184.11  E(vib)   ...       0.37 
freq.     190.73  E(vib)   ...       0.36 
freq.     207.14  E(vib)   ...       0.34 
freq.     222.70  E(vib)   ...       0.33 
freq.     236.15  E(vib)   ...       0.32 
freq.     249.61  E(vib)   ...       0.31 
freq.     253.71  E(vib)   ...       0.30 
freq.     254.46  E(vib)   ...       0.30 
freq.     266.12  E(vib)   ...       0.29 
freq.     274.82  E(vib)   ...       0.28 
freq.     304.19  E(vib)   ...       0.26 
freq.     309.70  E(vib)   ...       0.26 
freq.     336.69  E(vib)   ...       0.24 
freq.     352.00  E(vib)   ...       0.23 
freq.     381.79  E(vib)   ...       0.21 
freq.     396.53  E(vib)   ...       0.20 
freq.     414.48  E(vib)   ...       0.19 
freq.     433.96  E(vib)   ...       0.17 
freq.     440.42  E(vib)   ...       0.17 
freq.     473.66  E(vib)   ...       0.15 
freq.     482.16  E(vib)   ...       0.15 
freq.     496.90  E(vib)   ...       0.14 
freq.     511.28  E(vib)   ...       0.14 
freq.     517.29  E(vib)   ...       0.13 
freq.     523.81  E(vib)   ...       0.13 
freq.     540.53  E(vib)   ...       0.12 
freq.     559.77  E(vib)   ...       0.12 
freq.     584.19  E(vib)   ...       0.11 
freq.     624.53  E(vib)   ...       0.09 
freq.     628.04  E(vib)   ...       0.09 
freq.     660.06  E(vib)   ...       0.08 
freq.     706.56  E(vib)   ...       0.07 
freq.     719.45  E(vib)   ...       0.07 
freq.     723.39  E(vib)   ...       0.07 
freq.     743.33  E(vib)   ...       0.06 
freq.     759.93  E(vib)   ...       0.06 
freq.     774.90  E(vib)   ...       0.05 
freq.     781.47  E(vib)   ...       0.05 
freq.     787.98  E(vib)   ...       0.05 
freq.     814.09  E(vib)   ...       0.05 
freq.     817.17  E(vib)   ...       0.05 
freq.     820.73  E(vib)   ...       0.05 
freq.     823.64  E(vib)   ...       0.05 
freq.     838.68  E(vib)   ...       0.04 
freq.     848.81  E(vib)   ...       0.04 
freq.     900.90  E(vib)   ...       0.03 
freq.     907.49  E(vib)   ...       0.03 
freq.     947.89  E(vib)   ...       0.03 
freq.     960.96  E(vib)   ...       0.03 
freq.     975.91  E(vib)   ...       0.03 
freq.     982.66  E(vib)   ...       0.02 
freq.     986.45  E(vib)   ...       0.02 
freq.     994.84  E(vib)   ...       0.02 
freq.     998.05  E(vib)   ...       0.02 
freq.    1015.02  E(vib)   ...       0.02 
freq.    1018.90  E(vib)   ...       0.02 
freq.    1030.64  E(vib)   ...       0.02 
freq.    1061.44  E(vib)   ...       0.02 
freq.    1081.82  E(vib)   ...       0.02 
freq.    1113.62  E(vib)   ...       0.01 
freq.    1113.95  E(vib)   ...       0.01 
freq.    1123.11  E(vib)   ...       0.01 
freq.    1131.35  E(vib)   ...       0.01 
freq.    1133.72  E(vib)   ...       0.01 
freq.    1137.20  E(vib)   ...       0.01 
freq.    1152.57  E(vib)   ...       0.01 
freq.    1175.78  E(vib)   ...       0.01 
freq.    1179.37  E(vib)   ...       0.01 
freq.    1181.37  E(vib)   ...       0.01 
freq.    1186.96  E(vib)   ...       0.01 
freq.    1201.14  E(vib)   ...       0.01 
freq.    1214.05  E(vib)   ...       0.01 
freq.    1238.62  E(vib)   ...       0.01 
freq.    1258.53  E(vib)   ...       0.01 
freq.    1273.79  E(vib)   ...       0.01 
freq.    1283.69  E(vib)   ...       0.01 
freq.    1289.65  E(vib)   ...       0.01 
freq.    1298.90  E(vib)   ...       0.01 
freq.    1319.48  E(vib)   ...       0.01 
freq.    1324.81  E(vib)   ...       0.01 
freq.    1347.57  E(vib)   ...       0.01 
freq.    1358.41  E(vib)   ...       0.01 
freq.    1407.83  E(vib)   ...       0.00 
freq.    1409.51  E(vib)   ...       0.00 
freq.    1414.91  E(vib)   ...       0.00 
freq.    1421.79  E(vib)   ...       0.00 
freq.    1423.06  E(vib)   ...       0.00 
freq.    1426.18  E(vib)   ...       0.00 
freq.    1449.82  E(vib)   ...       0.00 
freq.    1454.03  E(vib)   ...       0.00 
freq.    1459.63  E(vib)   ...       0.00 
freq.    1471.39  E(vib)   ...       0.00 
freq.    1478.08  E(vib)   ...       0.00 
freq.    1483.62  E(vib)   ...       0.00 
freq.    1487.04  E(vib)   ...       0.00 
freq.    1491.84  E(vib)   ...       0.00 
freq.    1491.86  E(vib)   ...       0.00 
freq.    1495.65  E(vib)   ...       0.00 
freq.    1500.90  E(vib)   ...       0.00 
freq.    1504.46  E(vib)   ...       0.00 
freq.    1516.97  E(vib)   ...       0.00 
freq.    1519.71  E(vib)   ...       0.00 
freq.    1526.40  E(vib)   ...       0.00 
freq.    1536.20  E(vib)   ...       0.00 
freq.    1555.17  E(vib)   ...       0.00 
freq.    1598.83  E(vib)   ...       0.00 
freq.    1618.99  E(vib)   ...       0.00 
freq.    1640.52  E(vib)   ...       0.00 
freq.    1658.74  E(vib)   ...       0.00 
freq.    1760.67  E(vib)   ...       0.00 
freq.    3038.44  E(vib)   ...       0.00 
freq.    3041.79  E(vib)   ...       0.00 
freq.    3043.24  E(vib)   ...       0.00 
freq.    3048.23  E(vib)   ...       0.00 
freq.    3087.58  E(vib)   ...       0.00 
freq.    3089.19  E(vib)   ...       0.00 
freq.    3095.02  E(vib)   ...       0.00 
freq.    3096.80  E(vib)   ...       0.00 
freq.    3108.17  E(vib)   ...       0.00 
freq.    3113.33  E(vib)   ...       0.00 
freq.    3113.40  E(vib)   ...       0.00 
freq.    3120.46  E(vib)   ...       0.00 
freq.    3150.08  E(vib)   ...       0.00 
freq.    3157.24  E(vib)   ...       0.00 
freq.    3179.30  E(vib)   ...       0.00 
freq.    3187.03  E(vib)   ...       0.00 
freq.    3191.29  E(vib)   ...       0.00 
freq.    3197.63  E(vib)   ...       0.00 
freq.    3201.18  E(vib)   ...       0.00 
freq.    3203.41  E(vib)   ...       0.00 
freq.    3206.53  E(vib)   ...       0.00 
freq.    3233.12  E(vib)   ...       0.00 
freq.    3242.89  E(vib)   ...       0.00 
freq.    3252.28  E(vib)   ...       0.00 

------------
INNER ENERGY
------------

The inner energy is: U= E(el) + E(ZPE) + E(vib) + E(rot) + E(trans)
    E(el)   - is the total energy from the electronic structure calculation
              = E(kin-el) + E(nuc-el) + E(el-el) + E(nuc-nuc)
    E(ZPE)  - the the zero temperature vibrational energy from the frequency calculation
    E(vib)  - the the finite temperature correction to E(ZPE) due to population
              of excited vibrational states
    E(rot)  - is the rotational thermal energy
    E(trans)- is the translational thermal energy

Summary of contributions to the inner energy U:
Electronic energy                ...  -1603.81855391 Eh
Zero point energy                ...      0.41911286 Eh     263.00 kcal/mol
Thermal vibrational correction   ...      0.02529791 Eh      15.87 kcal/mol
Thermal rotational correction    ...      0.00141627 Eh       0.89 kcal/mol
Thermal translational correction ...      0.00141627 Eh       0.89 kcal/mol
-----------------------------------------------------------------------
Total thermal energy                  -1603.37131061 Eh


Summary of corrections to the electronic energy:
(perhaps to be used in another calculation)
Total thermal correction                  0.02813045 Eh      17.65 kcal/mol
Non-thermal (ZPE) correction              0.41911286 Eh     263.00 kcal/mol
-----------------------------------------------------------------------
Total correction                          0.44724331 Eh     280.65 kcal/mol


--------
ENTHALPY
--------

The enthalpy is H = U + kB*T
                kB is Boltzmann's constant
Total thermal energy              ...  -1603.37131061 Eh 
Thermal Enthalpy correction       ...      0.00094421 Eh       0.59 kcal/mol
-----------------------------------------------------------------------
Total Enthalpy                    ...  -1603.37036640 Eh


Note: Only C1 symmetry has been detected, increase convergence thresholds 
      if your molecule has a higher symmetry. Symmetry factor of 1.0 is   
      used for the rotational entropy correction. 
 

Note: Rotational entropy computed according to Herzberg 
Infrared and Raman Spectra, Chapter V,1, Van Nostrand Reinhold, 1945 
Point Group:  C1, Symmetry Number:   1  
Rotational constants in cm-1:     0.007038     0.006015     0.004309 

Vibrational entropy computed according to the QRRHO of S. Grimme
Chem.Eur.J. 2012 18 9955 using a reference frequency of 100.0 cm-1


-------
ENTROPY
-------

The entropy contributions are T*S = T*(S(el)+S(vib)+S(rot)+S(trans))
     S(el)   - electronic entropy
     S(vib)  - vibrational entropy
     S(rot)  - rotational entropy
     S(trans)- translational entropy
The entropies will be listed as multiplied by the temperature to get
units of energy

Electronic entropy                ...      0.00000000 Eh      0.00 kcal/mol
Vibrational entropy               ...      0.04557364 Eh     28.60 kcal/mol
Rotational entropy                ...      0.01683627 Eh     10.56 kcal/mol
Translational entropy             ...      0.02084658 Eh     13.08 kcal/mol
-----------------------------------------------------------------------
Final entropy term                ...      0.08325649 Eh     52.24 kcal/mol

In case the symmetry of your molecule has not been determined correctly
or in case you have a reason to use a different symmetry number we print 
out the resulting rotational entropy values for sn=1,12:

 non-linear molecules -----------------------------------
|  sn= 1 | S(rot)=       0.01683627 Eh     10.56 kcal/mol|
|  sn= 2 | S(rot)=       0.01618181 Eh     10.15 kcal/mol|
|  sn= 3 | S(rot)=       0.01579898 Eh      9.91 kcal/mol|
|  sn= 4 | S(rot)=       0.01552735 Eh      9.74 kcal/mol|
|  sn= 5 | S(rot)=       0.01531667 Eh      9.61 kcal/mol|
|  sn= 6 | S(rot)=       0.01514452 Eh      9.50 kcal/mol|
|  sn= 7 | S(rot)=       0.01499897 Eh      9.41 kcal/mol|
|  sn= 8 | S(rot)=       0.01487290 Eh      9.33 kcal/mol|
|  sn= 9 | S(rot)=       0.01476169 Eh      9.26 kcal/mol|
|  sn=10 | S(rot)=       0.01466221 Eh      9.20 kcal/mol|
|  sn=11 | S(rot)=       0.01457222 Eh      9.14 kcal/mol|
|  sn=12 | S(rot)=       0.01449006 Eh      9.09 kcal/mol|
 linear molecules ---------------------------------------
|  Dinfh | S(rot)=       0.01046887 Eh      6.57 kcal/mol|
|  Cinfv | S(rot)=       0.01112333 Eh      6.98 kcal/mol|
 --------------------------------------------------------


-------------------
GIBBS FREE ENERGY
-------------------

The Gibbs free energy is G = H - T*S

Total enthalpy                    ...  -1603.37036640 Eh 
Total entropy correction          ...     -0.08325649 Eh    -52.24 kcal/mol
-----------------------------------------------------------------------
Final Gibbs free energy         ...  -1603.45362289 Eh

For completeness - the Gibbs free energy minus the electronic energy
G-E(el)                           ...      0.36493103 Eh    229.00 kcal/mol


Maximum memory used throughout the entire PROP-calculation: 479.5 MB

--------------------------------
SUGGESTED CITATIONS FOR THIS RUN
--------------------------------

Below you find a list of papers that are relevant to this ORCA run
We neither can nor want to force you to cite these papers, but we appreciate if you do
You receive ORCA, which is the product of decades of hard work by many enthusiastic individuals, for free
The only thing we kindly ask in return is that you cite our papers,
We deeply appreciate it, if you show your appreciation for ORCA by not just citing the generic ORCA reference.

Please note that relegating all ORCA citations to the supporting information does *not* help us.
SI sections are not indexed - citations you put there will not count into any citation statistics
But we need these citations in order to attract the funding resources that allow us to do what we are doing

Therefore, if you are a happy ORCA user, please consider citing a few of the papers listed below in the main body of your paper

In addition to the list printed below, the program has created the file 4.bibtex that contains the list in bibtex format
You can import this file easily into all common literature databanks and citation aid programs


List of essential papers. We consider these as the minimum necessary citations

  1. Neese,F.
     Software update: the ORCA program system, version 5.0
     WIRES Comput. Molec. Sci., 2022 12(1)e1606
     doi.org/10.1002/wcms.1606

List of papers to cite with high priority. The work reported in these papers was absolutely
necessary for this run to complete.
Our perspective: the developers of density functionals and basis sets usually get cited in chemistry papers
Good! But without the algorithms to do something with them, the functionals or basis sets would not do anything.
Hence, in our opinion, the algorithm design and method developments papers are equally worthy of getting cited

  1. Neese,F.
     An improvement of the resolution of the identity approximation for the formation of the Coulomb matrix
     J. Comp. Chem., 2003 24(14)1740-1747
     doi.org/10.1002/jcc.10318
  2. Neese,F.; Wennmohs,F.; Hansen,A.; Becker,U.
     Efficient, approximate and parallel Hartree-Fock and hybrid DFT calculations. A 'chain-of-spheres' algorithm for the Hartree-Fock exchange
     Chem. Phys., 2009 356(1-3)98-109
     doi.org/10.1016/j.chemphys.2008.10.036
  3. Bykov,D.; Petrenko,T.; Izsak,R.; Kossmann,S.; Becker,U.; Valeev,E.; Neese,F.
     Efficient implementation of the analytic second derivatives of Hartree-Fock and hybrid DFT energies: a detailed analysis of different approximations
     Molec. Phys., 2015 113 1961-1977
     doi.org/10.1080/00268976.2015.1025114
  4. Garcia-Rates,M.; Neese,F.
     Efficient implementation of the analytical second derivatives of hartree-fock and hybrid DFT energies within the framework of the conductor-like polarizable continuum model
     J. Comput. Chem., 2019 40 1816-1828
     doi.org/10.1002/jcc.25833
  5. Garcia-Rates,M.; Neese,F.
     Effect of the Solute Cavity on the Solvation Energy and its Derivatives within the Framework of the Gaussian Charge Scheme
     J. Comput. Chem., 2020 41 922-939
     doi.org/10.1002/jcc.26139
  6. Helmich-Paris,B.; de Souza,B.; Neese,F.; Izsák,R.
     An improved chain of spheres for exchange algorithm
     J. Chem. Phys., 2021 155 104109
     doi.org/doi: 10.1063/5.0058766.
  7. Neese,F.
     The SHARK Integral Generation and Digestion System
     J. Comp. Chem., 2022  1-16
     doi.org/10.1002/jcc.26942

List of suggested additional citations. These are papers that are important in the 'surrounding' of 
of this run, or papers that preceded the highly important papers. If you like your results we are grateful for a citation.

  1. Izsak,R.; Neese,F.
     An overlap fitted chain of spheres exchange method
     J. Chem. Phys., 2011 135 144105
     doi.org/10.1063/1.3646921
  2. Izsak,R.; Hansen,A.; Neese,F.
     The resolution of identity and chain of spheres approximations for the LPNO-CCSD singles Fock term
     Molec. Phys., 2012 110 2413-2417
     doi.org/10.1080/00268976.2012.687466
  3. Neese,F.
     The ORCA program system
     WIRES Comput. Molec. Sci., 2012 2(1)73-78
     doi.org/10.1002/wcms.81
  4. Izsak,R.; Neese,F.; Klopper,W.
     Robust fitting techniques in the chain of spheres approximation to the Fock exchange: The role of the complementary space
     J. Chem. Phys., 2013 139 
     doi.org/10.1063/1.4819264
  5. Neese,F.
     Software update: the ORCA program system, version 4.0
     WIRES Comput. Molec. Sci., 2018 8(1)1-6
     doi.org/10.1002/wcms.1327
  6. Neese,F.; Wennmohs,F.; Becker,U.; Riplinger,C.
     The ORCA quantum chemistry program package
     J. Chem. Phys., 2020 152 Art. No. L224108
     doi.org/10.1063/5.0004608

List of optional additional citations

  1. Neese,F.
     Approximate second-order SCF convergence for spin unrestricted wavefunctions
     Chem. Phys. Lett., 2000 325(1-3)93-98
     doi.org/10.1016/s0009-2614(00)00662-x

Timings for individual modules:

Sum of individual times          ...    28432.825 sec (= 473.880 min)
Startup calculation              ...      541.645 sec (=   9.027 min)   1.9 %
SCF iterations                   ...    13376.729 sec (= 222.945 min)  47.0 %
Property integrals               ...     2069.404 sec (=  34.490 min)   7.3 %
SCF Response                     ...     3638.574 sec (=  60.643 min)  12.8 %
Property calculations            ...     1710.047 sec (=  28.501 min)   6.0 %
SCF Gradient evaluation          ...     7091.881 sec (= 118.198 min)  24.9 %
Geometry relaxation              ...        4.546 sec (=   0.076 min)   0.0 %
                             ****ORCA TERMINATED NORMALLY****
TOTAL RUN TIME: 0 days 7 hours 54 minutes 7 seconds 435 msec
