
                                 *****************
                                 * O   R   C   A *
                                 *****************

                                            #,                                       
                                            ###                                      
                                            ####                                     
                                            #####                                    
                                            ######                                   
                                           ########,                                 
                                     ,,################,,,,,                         
                               ,,#################################,,                 
                          ,,##########################################,,             
                       ,#########################################, ''#####,          
                    ,#############################################,,   '####,        
                  ,##################################################,,,,####,       
                ,###########''''           ''''###############################       
              ,#####''   ,,,,##########,,,,          '''####'''          '####       
            ,##' ,,,,###########################,,,                        '##       
           ' ,,###''''                  '''############,,,                           
         ,,##''                                '''############,,,,        ,,,,,,###''
      ,#''                                            '''#######################'''  
     '                                                          ''''####''''         
             ,#######,   #######,   ,#######,      ##                                
            ,#'     '#,  ##    ##  ,#'     '#,    #''#        ,####,   ,####,        
            ##       ##  ##   ,#'  ##            #'  '#       #'       #'  '#        
            ##       ##  #######   ##           ,######,      #####,   #    #        
            '#,     ,#'  ##    ##  '#,     ,#' ,#      #,     #,   #   #,  ,#        
             '#######'   ##     ##  '#######'  #'      '#     '####' # '####'        



                #########################################################
                #                        -***-                          #
                #          Department of theory and spectroscopy        #
                #                                                       #
                #                      Frank Neese                      #
                #                                                       #
                #     Directorship, Architecture, Infrastructure        #
                #                    SHARK, DRIVERS                     #
                #        Core code/Algorithms in most modules           #
                #                                                       #
                #        Max Planck Institute fuer Kohlenforschung      #
                #                Kaiser Wilhelm Platz 1                 #
                #                 D-45470 Muelheim/Ruhr                 #
                #                      Germany                          #
                #                                                       #
                #                  All rights reserved                  #
                #                        -***-                          #
                #########################################################


                         Program Version 6.0.1  -  RELEASE   -


 With contributions from (in alphabetic order):
[Max-Planck-Institut fuer Kohlenforschung]                               
  Daniel Aravena         : Magnetic Suceptibility                        
  Michael Atanasov       : Ab Initio Ligand Field Theory (pilot matlab implementation)
  Alexander A. Auer      : GIAO ZORA, VPT2 properties, NMR spectrum      
  Ute Becker             : All parallelization in ORCA, NUMFREQ, NUMCALC 
  Giovanni Bistoni       : ED, misc. LED, open-shell LED, HFLD           
  Martin Brehm           : Molecular dynamics                            
  Dmytro Bykov           : pre 5.0 version of the SCF Hessian            
  Marcos Casanova-Páez   : Triplet and SCS-CIS(D). UHF-(DLPNO)-IP/EA/STEOM-CCSD. UHF-CVS-IP/STEOM-CCSD   
  Vijay G. Chilkuri      : MRCI spin determinant printing, contributions to CSF-ICE 
  Pauline Colinet        : FMM embedding                                 
  Dipayan Datta          : RHF DLPNO-CCSD density                        
  Achintya Kumar Dutta   : EOM-CC, STEOM-CC                              
  Nicolas Foglia         : Exact transition moments, OPA infrastructure, MCD improvements    
  Dmitry Ganyushin       : Spin-Orbit,Spin-Spin,Magnetic field MRCI      
  Miquel Garcia-Rates    : C-PCM and meta-GGA Hessian, CCSD/C-PCM, Gaussian charge scheme 
  Tiago L. C. Gouveia    : GS-ROHF, GS-ROCIS                             
  Yang Guo               : DLPNO-NEVPT2, F12-NEVPT2, CIM, IAO-localization        
  Andreas Hansen         : Spin unrestricted coupled pair/coupled cluster methods 
  Ingolf Harden          : AUTO-CI MPn and infrastructure                
  Benjamin Helmich-Paris : MC-RPA, TRAH-(SCF,CASSCF), AVAS, COSX integrals, SCF dyn. polar. 
  Lee Huntington         : MR-EOM, pCC                                   
  Robert Izsak           : Overlap fitted RIJCOSX, COSX-SCS-MP3, EOM     
  Riya Kayal             : Wick's Theorem for AUTO-CI, AUTO-CI UHF-CCSDT 
  Emily Kempfer          : AUTO-CI, RHF CISDT and CCSDT                  
  Christian Kollmar      : KDIIS, OOCD, Brueckner-CCSD(T), CCSD density, CASPT2, CASPT2-K, improved NEVPT2 
  Axel Koslowski         : Symmetry handling                             
  Simone Kossmann        : meta-GGA functionals, TD-DFT gradient, OOMP2, (MP2 Hessian; deprecated post 5.0) 
  Lucas Lang             : DCDCAS                                        
  Marvin Lechner         : AUTO-CI (C++ implementation), FIC-MRCC        
  Spencer Leger          : CASSCF response                               
  Dagmar Lenk            : GEPOL surface, SMD, ORCA-2-JSON               
  Dimitrios Liakos       : Extrapolation schemes; Compound Job, initial MDCI parallelization 
  Dimitrios Manganas     : Further ROCIS development; embedding schemes. LFT, Crystal Embedding 
  Dimitrios Pantazis     : SARC Basis sets                               
  Anastasios Papadopoulos: AUTO-CI, single reference methods and gradients 
  Taras Petrenko         : pre 6.0 DFT Hessian and TD-DFT gradient, (ASA, deprecated), ECA, 1-Electron XAS/XES, NRVS 
  Peter Pinski           : DLPNO-MP2, DLPNO-MP2 Gradient                 
  Christoph Reimann      : Effective Core Potentials                     
  Marius Retegan         : Local ZFS, SOC                                
  Christoph Riplinger    : Optimizer, TS searches, QM/MM, DLPNO-CCSD(T), (RO)-DLPNO pert. Triples 
  Michael Roemelt        : Original ROCIS implementation                 
  Masaaki Saitow         : Open-shell DLPNO-CCSD energy and density      
  Barbara Sandhoefer     : DKH picture change effects                    
  Kantharuban Sivalingam : CASSCF convergence/infrastructure, NEVPT2 and variants, FIC-MRCI 
  Bernardo de Souza      : ESD, SOC TD-DFT                               
  Georgi L. Stoychev     : AutoAux, RI-MP2 NMR, DLPNO-MP2 response, X2C  
  Van Anh Tran           : RI-MP2 g-tensors                              
  Willem Van den Heuvel  : Paramagnetic NMR                              
  Zikuan Wang            : NOTCH, Electric field optimization            
  Frank Wennmohs         : Technical directorship and infrastructure     
  Hang Xu                : AUTO-CI-Response properties                   
                                                                         
[FACCTs GmbH]                                                            
  Markus Bursch, Miquel Garcia-Rates, Christoph Riplinger, Bernardo de Souza, Georgi L. Stoychev 
                                                                 
  APM, Basis sets (HGBS, AHGBS, def-TZVP (Ac-Lr), def2-XVPD (La-Lu)), CI-OPT, improved COSX, DLPNO-Multilevel,           
  DOCKER, DRACO, updates on ESD, GOAT, IRC, LR-CPCM, MBIS, meta-GGA TD-DFT gradient, ML-optimized integration grids, 
  MM, NACMEs, nearIR, NEB, NEB-TS, NL-DFT gradient (VV10), 2- and 3-layer-ONIOM, interface openCOSMO-RS, QMMM,   
  Crystal-QMMM, SF, symmetry and pop. for TD-DFT, r2SCAN hybrids, SOLVATOR                                   
                                                                         
[Other institutions]                                                     
  V. Asgeirsson          : NEB                                           
  Christoph Bannwarth    : sTDA-DFT, sTD-DFT, PBEh-3c, B97-3c, D3        
  Sebastian Ehlert       : rSCAN, r2SCAN, r2SCAN-3c, D4, dhf basis sets  
  Marvin Friede          : D4 for Fr, Ra, Ac-Lr                          
  Lars Goerigk           : TD-DFT with DH, B97 family of functionals     
  Stefan Grimme          : VdW corrections, initial TS optimization, DFT functionals, gCP, sTDA/sTD-DF 
  Waldemar Hujo          : DFT-NL                                        
  H. Jonsson             : NEB                                           
  Holger Kruse           : gCP                                           
  Marcel Mueller         : wB97X-3c, vDZP basis set                      
  Hagen Neugebauer       : wr2SCAN                                       
  Tobias Risthaus        : range-separated hybrid DFT                    
  Lukas Wittmann         : regularized MP2, r2SCAN double-hybrids, wr2SCAN        
                                                                         
We gratefully acknowledge several colleagues who have allowed us to      
interface, adapt or use parts of their codes:                            
  Ed Valeev, F. Pavosevic, A. Kumar             : LibInt (2-el integral package), F12 methods 
  Garnet Chan, S. Sharma, J. Yang, R. Olivares  : DMRG                   
  Ulf Ekstrom                                   : XCFun DFT Library      
  Mihaly Kallay                                 : mrcc  (arbitrary order and MRCC methods)
  Frank Weinhold                                : gennbo (NPA and NBO analysis)           
  Simon Mueller                                 : openCOSMO-RS                            
  Christopher J. Cramer and Donald G. Truhlar   : smd solvation model                     
  S Lehtola, MJT Oliveira, MAL Marques          : LibXC Library                           
  Liviu Ungur et al                             : ANISO software                          


 Your calculation uses the libint2 library for the computation of 2-el integrals
 For citations please refer to: http://libint.valeyev.net

 Your ORCA version has been built with support for libXC version: 6.2.2
 For citations please refer to: https://libxc.gitlab.io

 This ORCA versions uses:
   CBLAS   interface :  Fast vector & matrix operations
   LAPACKE interface :  Fast linear algebra routines
   SCALAPACK package :  Parallel linear algebra routines
   Shared memory     :  Shared parallel matrices
   BLAS/LAPACK       :  OpenBLAS 0.3.27  USE64BITINT DYNAMIC_ARCH NO_AFFINITY Zen SINGLE_THREADED
        Core in use  :  Zen
   Copyright (c) 2011-2014, The OpenBLAS Project


XCFun DFT library Copyright 2009-2010 Ulf Ekstrom and contributors.
See http://admol.org/xcfun for more information.
This is free software; see the source code for copying conditions.
There is ABSOLUTELY NO WARRANTY; not even for MERCHANTABILITY or FITNESS FOR A PARTICULAR PURPOSE.
For details see the documentation.
Scientific users of this library should cite U. Ekstrom, L. Visscher, R. Bast, A. J. Thorvaldsen and K. Ruud;
J.Chem.Theor.Comp. 2010, DOI: 10.1021/ct100117s
XCFun Version 0.99 

================================================================================

----- Orbital basis set information -----
Your calculation utilizes the basis: def2-TZVP(-f)
   F. Weigend and R. Ahlrichs, Phys. Chem. Chem. Phys. 7, 3297 (2005).

----- AuxJ basis set information -----
Your calculation utilizes the auxiliary basis: def2/J
   F. Weigend, Phys. Chem. Chem. Phys. 8, 1057 (2006).

----- AuxC basis set information -----
Your calculation utilizes the auxiliary basis: def2-TZVP/C
  H-La, Hf-Rn : A. Hellweg, C. Hattig, S. Hofener and W. Klopper, Theor. Chem. Acc. 117, 587 (2007).
        Ce-Lu : J. Chmela and M. E. Harding, Mol. Phys. (2018).

================================================================================
                                        WARNINGS
                       Please study these warnings very carefully!
================================================================================

INFO   : Checking CIS options ...

WARNING: (CIS/TDDFT): Analytic excited state gradients requested
  ===> : turning on equilibrium dielectric conditions.

WARNING: Analytical Frequencies for this method not available!
  ===> : Switching to Numerical Frequencies!

WARNING: The environment variable RSH_COMMAND is not set!
  ===> : All Displacements for the Numerical Hessian or Gradient calculation
         will be started on localhost

WARNING: Geometry Optimization
  ===> : Switching off AutoStart
         For restart on a previous wavefunction, please use MOREAD

WARNING: CIS/ROCIS methods need fully converged wavefunctions
  ===> : Setting SCFConvForced true
         You can overwrite this default with %scf ConvForced false 


================================================================================
                                       INPUT FILE
================================================================================
NAME = hbq-dcp-es.inp
|  1> ! CAM-B3LYP OPT FREQ Def2-TZVP(-f) Def2-TZVP/C Def2/J RIJCOSX TightSCF CPCM(Water) AllPop SOSCF
|  2> %pal nprocs 128 end
|  3> 
|  4> %tddft
|  5>     NRoots 3
|  6>     IRoot 1
|  7> end 
|  8> 
|  9> * xyz 1 1 
| 10>   C     -4.407140   -1.283900    1.663535
| 11>   C     -3.562134   -0.833223    0.495185
| 12>   C     -3.503543   -2.224811    1.103524
| 13>   C     -3.325179   -1.755231    2.589851
| 14>   C     -2.443893    0.104931    0.735672
| 15>   C     -1.793961    0.105923    1.961347
| 16>   O     -1.902122    0.825243   -0.273148
| 17>   C     -2.145701   -0.956037    2.878526
| 18>   C     -1.288086   -1.298390    3.926490
| 19>   C     -0.070792   -0.681892    4.077378
| 20>   C     -0.670381    0.941622    2.328725
| 21>   C      0.263608    0.444764    3.277509
| 22>   N     -0.439182    2.197023    1.802572
| 23>   C      0.769242    2.789395    1.930044
| 24>   C      1.786391    2.221042    2.671452
| 25>   C      1.505249    1.093319    3.407123
| 26>   C     -2.629270    1.178761   -1.420674
| 27>   O     -3.826985    1.379224   -1.379449
| 28>   N     -1.822014    1.293127   -2.480795
| 29>   C     -2.365738    1.803600   -3.735664
| 30>   C     -0.389741    1.003658   -2.484915
| 31>   H     -0.158502    0.413600   -3.372400
| 32>   H     -0.105831    0.441982   -1.603474
| 33>   H      0.182739    1.932925   -2.524336
| 34>   H     -3.412242    2.056217   -3.606581
| 35>   H     -2.266411    1.046044   -4.515088
| 36>   H     -1.809956    2.692999   -4.038106
| 37>   H     -3.598846   -2.505570    3.321032
| 38>   H     -4.072464   -0.753198   -0.450896
| 39>   H     -3.395601   -3.225616    0.713354
| 40>   H     -1.566667   -2.117424    4.577500
| 41>   H      0.641564   -1.015770    4.818736
| 42>   H      0.882669    3.757739    1.468768
| 43>   H      2.744554    2.716285    2.723352
| 44>   H      2.238249    0.685262    4.091438
| 45>   P     -1.761343    3.369910    1.392873
| 46>   O     -3.073712    2.781294    1.651489
| 47>   O     -1.314455    3.741596   -0.052997
| 48>   O     -1.372222    4.617922    2.255622
| 49>   C     -1.458154    5.079256   -0.670087
| 50>   C     -2.025515    4.971806    3.532343
| 51>   C     -2.873899    5.337970   -1.122990
| 52>   H     -0.764056    5.040623   -1.505100
| 53>   H     -1.111893    5.814120    0.052751
| 54>   H     -3.564965    5.378978   -0.279988
| 55>   H     -3.209200    4.572738   -1.822786
| 56>   H     -2.900433    6.304592   -1.630403
| 57>   C     -1.099873    4.693382    4.690774
| 58>   H     -2.957643    4.416086    3.602899
| 59>   H     -2.245517    6.031944    3.431443
| 60>   H     -1.585220    5.026441    5.610450
| 61>   H     -0.160964    5.237011    4.582291
| 62>   H     -0.887395    3.627658    4.783065
| 63> *
| 64> 
| 65> 
| 66>                          ****END OF INPUT****
================================================================================

                       *****************************
                       * Geometry Optimization Run *
                       *****************************

Geometry optimization settings:
Update method            Update   .... BFGS
Choice of coordinates    CoordSys .... (2022) Redundant Internals
Initial Hessian          InHess   .... Almloef's Model
Max. no of cycles        MaxIter  .... 159

Convergence Tolerances:
Energy Change            TolE     ....  5.0000e-06 Eh
Max. Gradient            TolMAXG  ....  3.0000e-04 Eh/bohr
RMS Gradient             TolRMSG  ....  1.0000e-04 Eh/bohr
Max. Displacement        TolMAXD  ....  4.0000e-03 bohr
RMS Displacement         TolRMSD  ....  2.0000e-03 bohr
Strict Convergence                .... False

------------------------------------------------------------------------------
                        ORCA OPTIMIZATION COORDINATE SETUP
------------------------------------------------------------------------------

The optimization will be done in redundant internal coordinates (2022)
Making redundant internal coordinates   ...  (2022 redundants) done
Evaluating the initial hessian          ...  (Almloef) done
Evaluating the coordinates              ...  done
Calculating the B-matrix                .... done
Calculating the G-matrix                .... done
Diagonalizing the G-matrix              .... done
Small eigenvalue found = 1.567e-03
Small eigenvalue found = 4.391e-03
Small eigenvalue found = 5.212e-03
Small eigenvalue found = 7.725e-03
Small eigenvalue found = 9.860e-03
Small eigenvalue found = 1.154e-02
Small eigenvalue found = 1.961e-02
Small eigenvalue found = 2.244e-02
Small eigenvalue found = 2.636e-02
Small eigenvalue found = 2.844e-02
The first mode is                       ....  141
The number of degrees of freedom        ....  153

    -----------------------------------------------------------------
                    Redundant Internal Coordinates


    -----------------------------------------------------------------
         Definition                    Initial Value    Approx d2E/dq
    -----------------------------------------------------------------
      1. B(C   1,C   0)                  1.5107         0.401037   
      2. B(C   2,C   1)                  1.5199         0.387729   
      3. B(C   2,C   0)                  1.4197         0.560312   
      4. B(C   3,C   2)                  1.5689         0.323813   
      5. B(C   3,C   0)                  1.5003         0.416665   
      6. B(C   4,C   1)                  1.4793         0.449999   
      7. B(C   5,C   4)                  1.3873         0.630949   
      8. B(O   6,C   4)                  1.3528         0.641530   
      9. B(C   7,C   5)                  1.4466         0.507471   
     10. B(C   7,C   3)                  1.4537         0.494454   
     11. B(C   8,C   7)                  1.3968         0.609472   
     12. B(C   9,C   8)                  1.3728         0.665494   
     13. B(C  10,C   5)                  1.4477         0.505482   
     14. B(C  11,C  10)                  1.4211         0.557435   
     15. B(C  11,C   9)                  1.4216         0.556302   
     16. B(N  12,C  10)                  1.3807         0.579054   
     17. B(C  13,N  12)                  1.3518         0.643835   
     18. B(C  14,C  13)                  1.3811         0.645677   
     19. B(C  15,C  14)                  1.3755         0.658970   
     20. B(C  15,C  11)                  1.4068         0.587394   
     21. B(C  16,O   6)                  1.4038         0.532018   
     22. B(O  17,C  16)                  1.2151         1.064040   
     23. B(N  18,C  16)                  1.3374         0.678921   
     24. B(C  19,N  18)                  1.4598         0.433081   
     25. B(C  20,N  18)                  1.4612         0.430745   
     26. B(H  21,C  20)                  1.0905         0.359391   
     27. B(H  22,C  20)                  1.0831         0.369396   
     28. B(H  23,C  20)                  1.0922         0.357247   
     29. B(H  24,C  19)                  1.0843         0.367756   
     30. B(H  25,C  19)                  1.0914         0.358190   
     31. B(H  26,C  19)                  1.0915         0.358107   
     32. B(H  27,C   3)                  1.0828         0.369707   
     33. B(H  28,C   1)                  1.0779         0.376441   
     34. B(H  29,C   2)                  1.0796         0.374150   
     35. B(H  30,C   8)                  1.0827         0.369888   
     36. B(H  31,C   9)                  1.0810         0.372220   
     37. B(H  32,C  13)                  1.0786         0.375531   
     38. B(H  33,C  14)                  1.0798         0.373806   
     39. B(H  34,C  15)                  1.0826         0.369984   
     40. B(P  35,N  12)                  1.8143         0.395778   
     41. B(O  36,P  35)                  1.4614         1.447004   
     42. B(O  37,P  35)                  1.5583         1.013459   
     43. B(O  38,P  35)                  1.5663         0.984237   
     44. B(C  39,O  37)                  1.4801         0.401864   
     45. B(C  40,O  38)                  1.4772         0.406252   
     46. B(C  41,C  39)                  1.5088         0.403876   
     47. B(H  42,C  39)                  1.0865         0.364742   
     48. B(H  43,C  39)                  1.0874         0.363570   
     49. B(H  44,C  41)                  1.0908         0.359006   
     50. B(H  45,H  24)                  3.0913         0.000044   
     51. B(H  45,C  41)                  1.0898         0.360330   
     52. B(H  46,C  41)                  1.0920         0.357424   
     53. B(C  47,C  40)                  1.5087         0.403921   
     54. B(H  48,C  40)                  1.0875         0.363417   
     55. B(H  49,C  40)                  1.0874         0.363534   
     56. B(H  50,C  47)                  1.0919         0.357566   
     57. B(H  51,C  47)                  1.0903         0.359645   
     58. B(H  52,C  47)                  1.0906         0.359293   
     59. A(C   2,C   0,C   3)           64.9328         0.397237   
     60. A(C   1,C   0,C   2)           62.3947         0.394582   
     61. A(C   1,C   0,C   3)           99.6626         0.374766   
     62. A(C   0,C   1,C   4)          119.0965         0.379787   
     63. A(C   4,C   1,H  28)          116.9670         0.336922   
     64. A(C   0,C   1,H  28)          115.8569         0.330542   
     65. A(C   2,C   1,H  28)          115.9461         0.328704   
     66. A(C   2,C   1,C   4)          119.1066         0.377575   
     67. A(C   0,C   1,C   2)           55.8657         0.370148   
     68. A(C   1,C   2,C   3)           96.2882         0.356862   
     69. A(C   1,C   2,H  29)          135.0709         0.328373   
     70. A(C   0,C   2,H  29)          145.1467         0.349175   
     71. A(C   0,C   2,C   1)           61.7396         0.392256   
     72. A(C   3,C   2,H  29)          127.4797         0.318809   
     73. A(C   0,C   2,C   3)           60.0188         0.380141   
     74. A(C   2,C   3,C   7)          116.4180         0.372017   
     75. A(C   0,C   3,C   7)          122.3458         0.388636   
     76. A(C   0,C   3,C   2)           55.0484         0.361261   
     77. A(C   2,C   3,H  27)          113.8017         0.318189   
     78. A(C   7,C   3,H  27)          116.8673         0.341232   
     79. A(C   0,C   3,H  27)          116.8944         0.331647   
     80. A(C   5,C   4,O   6)          118.0884         0.435250   
     81. A(C   1,C   4,C   5)          119.8810         0.411197   
     82. A(C   1,C   4,O   6)          121.2765         0.409751   
     83. A(C   7,C   5,C  10)          116.8456         0.403878   
     84. A(C   4,C   5,C  10)          126.0298         0.419788   
     85. A(C   4,C   5,C   7)          116.4685         0.420082   
     86. A(C   4,O   6,C  16)          122.4287         0.419398   
     87. A(C   3,C   7,C   5)          118.3570         0.402310   
     88. A(C   3,C   7,C   8)          120.8254         0.415571   
     89. A(C   5,C   7,C   8)          120.4197         0.417497   
     90. A(C   9,C   8,H  30)          120.1176         0.358806   
     91. A(C   7,C   8,C   9)          121.1203         0.438284   
     92. A(C   7,C   8,H  30)          118.5917         0.353489   
     93. A(C  11,C   9,H  31)          118.4013         0.348449   
     94. A(C   8,C   9,H  31)          121.3996         0.359189   
     95. A(C   8,C   9,C  11)          120.1746         0.431142   
     96. A(C  11,C  10,N  12)          117.5347         0.417959   
     97. A(C   5,C  10,N  12)          123.9270         0.410755   
     98. A(C   5,C  10,C  11)          118.5355         0.410642   
     99. A(C  10,C  11,C  15)          118.7124         0.421763   
    100. A(C   9,C  11,C  15)          121.4084         0.421610   
    101. A(C   9,C  11,C  10)          119.8781         0.417692   
    102. A(C  10,N  12,C  13)          120.8097         0.426068   
    103. A(C  13,N  12,P  35)          112.9204         0.425019   
    104. A(C  10,N  12,P  35)          123.4928         0.417050   
    105. A(N  12,C  13,C  14)          121.9150         0.437346   
    106. A(C  14,C  13,H  32)          121.4406         0.357886   
    107. A(N  12,C  13,H  32)          116.5574         0.355501   
    108. A(C  15,C  14,H  33)          122.1183         0.358847   
    109. A(C  13,C  14,H  33)          119.3786         0.357606   
    110. A(C  13,C  14,C  15)          118.2937         0.442088   
    111. A(C  14,C  15,H  34)          120.5769         0.358220   
    112. A(C  11,C  15,H  34)          118.8188         0.351304   
    113. A(C  11,C  15,C  14)          120.6030         0.434608   
    114. A(O  17,C  16,N  18)          127.4284         0.480508   
    115. A(O   6,C  16,N  18)          110.9074         0.423662   
    116. A(O   6,C  16,O  17)          121.6288         0.459487   
    117. A(C  19,N  18,C  20)          115.5908         0.377175   
    118. A(C  16,N  18,C  20)          125.2355         0.408043   
    119. A(C  16,N  18,C  19)          119.1105         0.408434   
    120. A(H  25,C  19,H  26)          108.7447         0.290344   
    121. A(H  24,C  19,H  26)          109.5479         0.291548   
    122. A(N  18,C  19,H  26)          109.4800         0.330019   
    123. A(H  24,C  19,H  25)          109.5458         0.291559   
    124. A(N  18,C  19,H  25)          109.7106         0.330032   
    125. A(N  18,C  19,H  24)          109.7935         0.331474   
    126. A(H  22,C  20,H  23)          109.4644         0.291642   
    127. A(H  21,C  20,H  23)          108.6539         0.290387   
    128. A(N  18,C  20,H  23)          110.2019         0.329593   
    129. A(H  21,C  20,H  22)          109.0338         0.291917   
    130. A(N  18,C  20,H  22)          110.9394         0.331421   
    131. A(N  18,C  20,H  21)          108.5008         0.329920   
    132. A(O  37,P  35,O  38)          104.4644         0.586237   
    133. A(O  36,P  35,O  38)          116.5228         0.627976   
    134. A(N  12,P  35,O  38)          102.1032         0.490918   
    135. A(O  36,P  35,O  37)          121.1843         0.631557   
    136. A(N  12,P  35,O  37)           98.9011         0.493588   
    137. A(N  12,P  35,O  36)          110.7377         0.527550   
    138. A(P  35,O  37,C  39)          125.0677         0.462646   
    139. A(P  35,O  38,C  40)          123.8547         0.461093   
    140. A(H  42,C  39,H  43)          109.3586         0.291865   
    141. A(C  41,C  39,H  43)          112.4862         0.329030   
    142. A(O  37,C  39,H  43)          107.6197         0.326786   
    143. A(C  41,C  39,H  42)          112.0146         0.329205   
    144. A(O  37,C  39,H  42)          103.0767         0.326959   
    145. A(O  37,C  39,C  41)          111.7907         0.370553   
    146. A(H  48,C  40,H  49)          109.3171         0.291694   
    147. A(C  47,C  40,H  49)          112.0417         0.329031   
    148. A(O  38,C  40,H  49)          104.0541         0.327366   
    149. A(C  47,C  40,H  48)          112.4420         0.329013   
    150. A(O  38,C  40,H  48)          108.2236         0.327348   
    151. A(O  38,C  40,C  47)          110.3697         0.371253   
    152. A(H  45,C  41,H  46)          108.4024         0.290528   
    153. A(H  44,C  41,H  46)          108.0844         0.290360   
    154. A(C  39,C  41,H  46)          108.3041         0.328106   
    155. A(H  44,C  41,H  45)          109.1303         0.290730   
    156. A(C  39,C  41,H  45)          111.1643         0.328544   
    157. A(C  39,C  41,H  44)          111.6495         0.328345   
    158. A(H  51,C  47,H  52)          109.1390         0.290679   
    159. A(H  50,C  47,H  52)          108.2633         0.290415   
    160. A(C  40,C  47,H  52)          111.3973         0.328394   
    161. A(H  50,C  47,H  51)          108.3291         0.290459   
    162. A(C  40,C  47,H  51)          111.0945         0.328447   
    163. A(C  40,C  47,H  50)          108.5241         0.328133   
    164. D(C   4,C   1,C   0,C   3)    -52.2053         0.011933   
    165. D(C   4,C   1,C   0,C   2)   -107.1744         0.011933   
    166. D(H  28,C   1,C   0,C   3)    159.9705         0.011933   
    167. D(H  28,C   1,C   0,C   2)    105.0014         0.011933   
    168. D(C   2,C   1,C   0,C   3)     54.9691         0.011933   
    169. D(C   3,C   2,C   1,H  28)   -155.7880         0.011958   
    170. D(C   1,C   2,C   0,C   3)   -116.9803         0.023344   
    171. D(C   0,C   2,C   1,H  28)   -104.8388         0.011958   
    172. D(H  29,C   2,C   0,C   3)    113.6289         0.023344   
    173. D(C   0,C   2,C   1,C   4)    107.1561         0.011958   
    174. D(C   3,C   2,C   1,C   0)    -50.9492         0.011958   
    175. D(H  29,C   2,C   1,C   0)    141.2905         0.011958   
    176. D(H  29,C   2,C   0,C   1)   -129.3908         0.023344   
    177. D(C   3,C   2,C   0,C   1)    116.9803         0.023344   
    178. D(C   3,C   2,C   1,C   4)     56.2069         0.011958   
    179. D(C   2,C   3,C   0,C   1)    -53.2332         0.012844   
    180. D(C   7,C   3,C   2,C   1)    -60.2788         0.008573   
    181. D(H  27,C   3,C   2,C   0)    107.1511         0.008573   
    182. D(H  27,C   3,C   0,C   2)   -101.3956         0.012844   
    183. D(C   0,C   3,C   2,C   1)     52.1567         0.008573   
    184. D(C   7,C   3,C   2,C   0)   -112.4355         0.008573   
    185. D(C   0,C   3,C   2,H  29)   -138.7185         0.008573   
    186. D(H  27,C   3,C   0,C   1)   -154.6287         0.012844   
    187. D(C   7,C   3,C   0,C   2)    101.5299         0.012844   
    188. D(C   7,C   3,C   2,H  29)    108.8460         0.008573   
    189. D(C   7,C   3,C   0,C   1)     48.2967         0.012844   
    190. D(O   6,C   4,C   1,C   2)    133.9237         0.014934   
    191. D(O   6,C   4,C   1,C   0)   -161.2369         0.014934   
    192. D(C   5,C   4,C   1,H  28)    176.3761         0.014934   
    193. D(C   5,C   4,C   1,C   0)     28.9012         0.014934   
    194. D(C   5,C   4,C   1,C   2)    -35.9382         0.014934   
    195. D(C  10,C   5,C   4,O   6)      8.3518         0.027607   
    196. D(C  10,C   5,C   4,C   1)    178.5335         0.027607   
    197. D(C   7,C   5,C   4,O   6)   -162.0251         0.027607   
    198. D(C   7,C   5,C   4,C   1)      8.1565         0.027607   
    199. D(C  16,O   6,C   4,C   5)   -163.0287         0.030352   
    200. D(C  16,O   6,C   4,C   1)     26.9334         0.030352   
    201. D(C   8,C   7,C   5,C  10)    -11.4455         0.017548   
    202. D(C   8,C   7,C   5,C   4)    159.8396         0.017548   
    203. D(C   3,C   7,C   5,C  10)    175.7351         0.017548   
    204. D(C   8,C   7,C   3,C   2)   -128.5473         0.018041   
    205. D(C   3,C   7,C   5,C   4)    -12.9798         0.017548   
    206. D(C   5,C   7,C   3,H  27)   -176.5715         0.018041   
    207. D(C   8,C   7,C   3,C   0)    167.7197         0.018041   
    208. D(C   5,C   7,C   3,C   2)     44.2418         0.018041   
    209. D(C   5,C   7,C   3,C   0)    -19.4912         0.018041   
    210. D(H  30,C   8,C   7,C   5)   -178.1912         0.025652   
    211. D(H  30,C   8,C   7,C   3)     -5.5507         0.025652   
    212. D(C   9,C   8,C   7,C   5)     -2.9314         0.025652   
    213. D(C   9,C   8,C   7,C   3)    169.7092         0.025652   
    214. D(H  31,C   9,C   8,H  30)      1.9683         0.030942   
    215. D(H  31,C   9,C   8,C   7)   -173.2198         0.030942   
    216. D(C  11,C   9,C   8,H  30)   -176.2056         0.030942   
    217. D(C  11,C   9,C   8,C   7)      8.6063         0.030942   
    218. D(N  12,C  10,C   5,C   7)   -160.4765         0.017408   
    219. D(N  12,C  10,C   5,C   4)     29.1787         0.017408   
    220. D(C  11,C  10,C   5,C   7)     20.1431         0.017408   
    221. D(C  11,C  10,C   5,C   4)   -150.2017         0.017408   
    222. D(C   9,C  11,C  10,C   5)    -15.1591         0.021278   
    223. D(C  15,C  11,C   9,H  31)      2.0011         0.021188   
    224. D(C  15,C  11,C   9,C   8)   -179.7708         0.021188   
    225. D(C  10,C  11,C   9,H  31)   -177.6063         0.021188   
    226. D(C  10,C  11,C   9,C   8)      0.6218         0.021188   
    227. D(C  15,C  11,C  10,N  12)    -14.1974         0.021278   
    228. D(C  15,C  11,C  10,C   5)    165.2229         0.021278   
    229. D(C   9,C  11,C  10,N  12)    165.4206         0.021278   
    230. D(P  35,N  12,C  10,C  11)   -144.3187         0.026888   
    231. D(P  35,N  12,C  10,C   5)     36.2951         0.026888   
    232. D(C  13,N  12,C  10,C  11)     15.4551         0.026888   
    233. D(C  13,N  12,C  10,C   5)   -163.9311         0.026888   
    234. D(H  32,C  13,N  12,P  35)    -19.9424         0.033774   
    235. D(H  32,C  13,N  12,C  10)    178.2999         0.033774   
    236. D(C  14,C  13,N  12,P  35)    156.7113         0.033774   
    237. D(C  14,C  13,N  12,C  10)     -5.0464         0.033774   
    238. D(H  33,C  14,C  13,H  32)     -5.1926         0.029000   
    239. D(H  33,C  14,C  13,N  12)    178.3159         0.029000   
    240. D(C  15,C  14,C  13,H  32)    169.6625         0.029000   
    241. D(C  15,C  14,C  13,N  12)     -6.8290         0.029000   
    242. D(H  34,C  15,C  14,H  33)      1.9843         0.030294   
    243. D(H  34,C  15,C  14,C  13)   -172.7218         0.030294   
    244. D(C  11,C  15,C  14,H  33)   -177.6076         0.030294   
    245. D(C  11,C  15,C  14,C  13)      7.6863         0.030294   
    246. D(H  34,C  15,C  11,C  10)   -176.7987         0.023734   
    247. D(H  34,C  15,C  11,C   9)      3.5894         0.023734   
    248. D(C  14,C  15,C  11,C  10)      2.8003         0.023734   
    249. D(C  14,C  15,C  11,C   9)   -176.8116         0.023734   
    250. D(N  18,C  16,O   6,C   4)   -150.6123         0.020414   
    251. D(O  17,C  16,O   6,C   4)     31.4008         0.020414   
    252. D(C  20,N  18,C  16,O  17)   -178.2137         0.037916   
    253. D(C  20,N  18,C  16,O   6)      3.9449         0.037916   
    254. D(C  19,N  18,C  16,O  17)      4.8134         0.037916   
    255. D(C  19,N  18,C  16,O   6)   -173.0281         0.037916   
    256. D(H  26,C  19,N  18,C  16)    121.8324         0.015991   
    257. D(H  25,C  19,N  18,C  20)     63.8355         0.015991   
    258. D(H  25,C  19,N  18,C  16)   -118.9056         0.015991   
    259. D(H  24,C  19,N  18,C  20)   -175.7246         0.015991   
    260. D(H  24,C  19,N  18,C  16)      1.5343         0.015991   
    261. D(H  23,C  20,N  18,C  16)   -106.5640         0.015819   
    262. D(H  22,C  20,N  18,C  19)   -168.0987         0.015819   
    263. D(H  22,C  20,N  18,C  16)     14.8335         0.015819   
    264. D(H  21,C  20,N  18,C  19)    -48.3461         0.015819   
    265. D(H  21,C  20,N  18,C  16)    134.5861         0.015819   
    266. D(O  38,P  35,N  12,C  10)    122.6961         0.003914   
    267. D(O  37,P  35,N  12,C  13)     68.4906         0.003914   
    268. D(O  37,P  35,N  12,C  10)   -130.3169         0.003914   
    269. D(O  36,P  35,N  12,C  13)   -163.2143         0.003914   
    270. D(O  36,P  35,N  12,C  10)     -2.0218         0.003914   
    271. D(C  39,O  37,P  35,O  38)    -39.6925         0.017621   
    272. D(C  39,O  37,P  35,O  36)     94.3499         0.017621   
    273. D(C  39,O  37,P  35,N  12)   -144.7374         0.017621   
    274. D(C  40,O  38,P  35,O  37)    155.6268         0.016632   
    275. D(C  40,O  38,P  35,O  36)     19.0430         0.016632   
    276. D(C  40,O  38,P  35,N  12)   -101.7380         0.016632   
    277. D(H  43,C  39,O  37,P  35)     46.3776         0.012752   
    278. D(H  42,C  39,O  37,P  35)    161.8975         0.012752   
    279. D(C  41,C  39,O  37,P  35)    -77.6185         0.012752   
    280. D(H  49,C  40,O  38,P  35)   -132.1055         0.013025   
    281. D(H  48,C  40,O  38,P  35)    -15.9104         0.013025   
    282. D(C  47,C  40,O  38,P  35)    107.5225         0.013025   
    283. D(H  45,C  41,C  39,H  43)   -178.2647         0.012933   
    284. D(H  45,C  41,C  39,H  42)     58.0707         0.012933   
    285. D(H  45,C  41,C  39,O  37)    -57.0465         0.012933   
    286. D(H  44,C  41,C  39,H  43)    -56.1398         0.012933   
    287. D(H  44,C  41,C  39,H  42)   -179.8044         0.012933   
    288. D(H  44,C  41,C  39,O  37)     65.0784         0.012933   
    289. D(H  50,C  47,C  40,H  48)    -62.7669         0.012936   
    290. D(H  50,C  47,C  40,O  38)    176.2841         0.012936   
    291. D(H  51,C  47,C  40,H  49)    -58.1650         0.012936   
    292. D(H  51,C  47,C  40,H  48)    178.2382         0.012936   
    293. D(H  51,C  47,C  40,O  38)     57.2892         0.012936   
    294. D(H  50,C  47,C  40,H  49)     60.8300         0.012936   
    -----------------------------------------------------------------

Number of atoms                         .... 53
Number of degrees of freedom            .... 294


         *************************************************************
         *                GEOMETRY OPTIMIZATION CYCLE   1            *
         *************************************************************
---------------------------------
CARTESIAN COORDINATES (ANGSTROEM)
---------------------------------
  C     -4.407140   -1.283900    1.663535
  C     -3.562134   -0.833223    0.495185
  C     -3.503543   -2.224811    1.103524
  C     -3.325179   -1.755231    2.589851
  C     -2.443893    0.104931    0.735672
  C     -1.793961    0.105923    1.961347
  O     -1.902122    0.825243   -0.273148
  C     -2.145701   -0.956037    2.878526
  C     -1.288086   -1.298390    3.926490
  C     -0.070792   -0.681892    4.077378
  C     -0.670381    0.941622    2.328725
  C      0.263608    0.444764    3.277509
  N     -0.439182    2.197023    1.802572
  C      0.769242    2.789395    1.930044
  C      1.786391    2.221042    2.671452
  C      1.505249    1.093319    3.407123
  C     -2.629270    1.178761   -1.420674
  O     -3.826985    1.379224   -1.379449
  N     -1.822014    1.293127   -2.480795
  C     -2.365738    1.803600   -3.735664
  C     -0.389741    1.003658   -2.484915
  H     -0.158502    0.413600   -3.372400
  H     -0.105831    0.441982   -1.603474
  H      0.182739    1.932925   -2.524336
  H     -3.412242    2.056217   -3.606581
  H     -2.266411    1.046044   -4.515088
  H     -1.809956    2.692999   -4.038106
  H     -3.598846   -2.505570    3.321032
  H     -4.072464   -0.753198   -0.450896
  H     -3.395601   -3.225616    0.713354
  H     -1.566667   -2.117424    4.577500
  H      0.641564   -1.015770    4.818736
  H      0.882669    3.757739    1.468768
  H      2.744554    2.716285    2.723352
  H      2.238249    0.685262    4.091438
  P     -1.761343    3.369910    1.392873
  O     -3.073712    2.781294    1.651489
  O     -1.314455    3.741596   -0.052997
  O     -1.372222    4.617922    2.255622
  C     -1.458154    5.079256   -0.670087
  C     -2.025515    4.971806    3.532343
  C     -2.873899    5.337970   -1.122990
  H     -0.764056    5.040623   -1.505100
  H     -1.111893    5.814120    0.052751
  H     -3.564965    5.378978   -0.279988
  H     -3.209200    4.572738   -1.822786
  H     -2.900433    6.304592   -1.630403
  C     -1.099873    4.693382    4.690774
  H     -2.957643    4.416086    3.602899
  H     -2.245517    6.031944    3.431443
  H     -1.585220    5.026441    5.610450
  H     -0.160964    5.237011    4.582291
  H     -0.887395    3.627658    4.783065

----------------------------
CARTESIAN COORDINATES (A.U.)
----------------------------
  NO LB      ZA    FRAG     MASS         X           Y           Z
   0 C     6.0000    0    12.011   -8.328288   -2.426219    3.143626
   1 C     6.0000    0    12.011   -6.731458   -1.574563    0.935764
   2 C     6.0000    0    12.011   -6.620737   -4.204283    2.085358
   3 C     6.0000    0    12.011   -6.283678   -3.316906    4.894109
   4 C     6.0000    0    12.011   -4.618288    0.198291    1.390219
   5 C     6.0000    0    12.011   -3.390095    0.200165    3.706409
   6 O     8.0000    0    15.999   -3.594490    1.559483   -0.516175
   7 C     6.0000    0    12.011   -4.054787   -1.806648    5.439626
   8 C     6.0000    0    12.011   -2.434130   -2.453602    7.419991
   9 C     6.0000    0    12.011   -0.133777   -1.288589    7.705128
  10 C     6.0000    0    12.011   -1.266836    1.779408    4.400652
  11 C     6.0000    0    12.011    0.498147    0.840482    6.193594
  12 N     7.0000    0    14.007   -0.829934    4.151772    3.406367
  13 C     6.0000    0    12.011    1.453657    5.271193    3.647255
  14 C     6.0000    0    12.011    3.375790    4.197161    5.048313
  15 C     6.0000    0    12.011    2.844508    2.066073    6.438529
  16 C     6.0000    0    12.011   -4.968600    2.227535   -2.684685
  17 O     8.0000    0    15.999   -7.231954    2.606356   -2.606781
  18 N     7.0000    0    14.007   -3.443107    2.443656   -4.688023
  19 C     6.0000    0    12.011   -4.470597    3.408310   -7.059382
  20 C     6.0000    0    12.011   -0.736504    1.896639   -4.695809
  21 H     1.0000    0     1.008   -0.299525    0.781591   -6.372912
  22 H     1.0000    0     1.008   -0.199992    0.835225   -3.030127
  23 H     1.0000    0     1.008    0.345327    3.652699   -4.770304
  24 H     1.0000    0     1.008   -6.448203    3.885687   -6.815450
  25 H     1.0000    0     1.008   -4.282896    1.976737   -8.532280
  26 H     1.0000    0     1.008   -3.420321    5.089031   -7.630914
  27 H     1.0000    0     1.008   -6.800833   -4.734841    6.275841
  28 H     1.0000    0     1.008   -7.695842   -1.423338   -0.852070
  29 H     1.0000    0     1.008   -6.416756   -6.095531    1.348044
  30 H     1.0000    0     1.008   -2.960572   -4.001351    8.650221
  31 H     1.0000    0     1.008    1.212380   -1.919527    9.106091
  32 H     1.0000    0     1.008    1.668003    7.101098    2.775569
  33 H     1.0000    0     1.008    5.186455    5.133035    5.146389
  34 H     1.0000    0     1.008    4.229678    1.294958    7.731697
  35 P    15.0000    0    30.974   -3.328456    6.368207    2.632149
  36 O     8.0000    0    15.999   -5.808474    5.255884    3.120862
  37 O     8.0000    0    15.999   -2.483960    7.070592   -0.100150
  38 O     8.0000    0    15.999   -2.593124    8.726608    4.262508
  39 C     6.0000    0    12.011   -2.755512    9.598403   -1.266281
  40 C     6.0000    0    12.011   -3.827669    9.395352    6.675161
  41 C     6.0000    0    12.011   -5.430882   10.087301   -2.122144
  42 H     1.0000    0     1.008   -1.443857    9.525397   -2.844227
  43 H     1.0000    0     1.008   -2.101173   10.987095    0.099685
  44 H     1.0000    0     1.008   -6.736808   10.164795   -0.529101
  45 H     1.0000    0     1.008   -6.064509    8.641223   -3.444566
  46 H     1.0000    0     1.008   -5.481024   11.913952   -3.081015
  47 C     6.0000    0    12.011   -2.078459    8.869207    8.864278
  48 H     1.0000    0     1.008   -5.589135    8.345193    6.808492
  49 H     1.0000    0     1.008   -4.243412   11.398722    6.484488
  50 H     1.0000    0     1.008   -2.995632    9.498597   10.602214
  51 H     1.0000    0     1.008   -0.304178    9.896517    8.659275
  52 H     1.0000    0     1.008   -1.676934    6.855280    9.038683

--------------------------------
INTERNAL COORDINATES (ANGSTROEM)
--------------------------------
 C      0   0   0     0.000000000000     0.00000000     0.00000000
 C      1   0   0     1.510690776057     0.00000000     0.00000000
 C      1   2   0     1.419652552018    62.39468924     0.00000000
 C      1   2   3     1.500284589316    99.66256694    54.96905276
 C      2   1   3     1.479334262081   119.09652030   252.82561128
 C      5   2   1     1.387332618485   119.88098476    28.90117817
 O      5   2   1     1.352805598076   121.27646601   198.76305271
 C      6   5   2     1.446615839551   116.46847936     8.15653795
 C      8   6   5     1.396759682311   120.41970319   159.83959037
 C      9   8   6     1.372822514014   121.12026170   357.06860548
 C      6   5   2     1.447684851715   126.02982833   178.53346228
 C     11   6   5     1.421053976083   118.53552274   209.79829270
 N     11   6   5     1.380696066414   123.92704021    29.17870073
 C     13  11   6     1.351829227730   120.80967863   196.06892930
 C     14  13  11     1.381051426730   121.91496523   354.95355658
 C     15  14  13     1.375504201787   118.29369433   353.17100725
 C      7   5   2     1.403757497185   122.42865479    26.93337321
 O     17   7   5     1.215074539367   121.62877722    31.40076057
 N     17   7   5     1.337384898275   110.90735585   209.38765663
 C     19  17   7     1.459765282183   119.11048845   186.97190743
 C     19  17   7     1.461237565521   125.23545198     3.94488121
 H     21  19  17     1.090536355978   108.50083302   134.58609075
 H     21  19  17     1.083061888147   110.93935894    14.83353248
 H     21  19  17     1.092165062127   110.20192498   253.43595881
 H     20  19  17     1.084273208926   109.79354237     1.53425412
 H     20  19  17     1.091447991359   109.71058014   241.09439959
 H     20  19  17     1.091510593668   109.48002489   121.83238614
 H      4   1   2     1.082833272748   116.89443223   205.37126434
 H      2   1   3     1.077919277166   115.85690568   105.00140575
 H      3   1   2     1.079580822490   145.14673845   230.60921612
 H      9   8   6     1.082699444360   118.59166170   181.80880088
 H     10   9   8     1.080989025746   121.39964420   186.78024197
 H     14  13  11     1.078578386044   116.55743016   178.29987899
 H     15  14  13     1.079831270902   119.37860367   178.31593639
 H     16  15  14     1.082629453910   120.57694066   187.27819199
 P     13  11   6     1.814284127498   123.49279309    36.29512045
 O     36  13  11     1.461390920689   110.73772398   357.97820044
 O     36  13  11     1.558332257267    98.90109104   229.68312908
 O     36  13  11     1.566296568912   102.10318588   122.69611691
 C     38  36  13     1.480129638343   125.06767176   215.26264294
 C     39  36  13     1.477173700397   123.85468506   258.26196741
 C     40  38  36     1.508770349069   111.79073757   282.38147639
 H     40  38  36     1.086513346656   103.07669722   161.89751037
 H     40  38  36     1.087389788834   107.61968581    46.37758103
 H     42  40  38     1.090828237819   111.64949358    65.07836360
 H     42  40  38     1.089826232039   111.16434200   302.95346367
 H     42  40  38     1.092030263596   108.30409265   183.96497550
 C     41  39  36     1.508739678573   110.36971288   107.52245930
 H     41  39  36     1.087504241794   108.22356440   344.08955927
 H     41  39  36     1.087416327378   104.05407034   227.89452014
 H     48  41  39     1.091922136815   108.52405921   176.28412870
 H     48  41  39     1.090344514918   111.09450675    57.28916363
 H     48  41  39     1.090610917487   111.39733320   295.37957777

---------------------------
INTERNAL COORDINATES (A.U.)
---------------------------
 C      0   0   0     0.000000000000     0.00000000     0.00000000
 C      1   0   0     2.854791839790     0.00000000     0.00000000
 C      1   2   0     2.682754528636    62.39468924     0.00000000
 C      1   2   3     2.835126996749    99.66256694    54.96905276
 C      2   1   3     2.795536615859   119.09652030   252.82561128
 C      5   2   1     2.621678705593   119.88098476    28.90117817
 O      5   2   1     2.556432092799   121.27646601   198.76305271
 C      6   5   2     2.733707757745   116.46847936     8.15653795
 C      8   6   5     2.639493274471   120.41970319   159.83959037
 C      9   8   6     2.594258581968   121.12026170   357.06860548
 C      6   5   2     2.735727897968   126.02982833   178.53346228
 C     11   6   5     2.685402836317   118.53552274   209.79829270
 N     11   6   5     2.609137439705   123.92704021    29.17870073
 C     13  11   6     2.554587020239   120.80967863   196.06892930
 C     14  13  11     2.609808973382   121.91496523   354.95355658
 C     15  14  13     2.599326237436   118.29369433   353.17100725
 C      7   5   2     2.652717228119   122.42865479    26.93337321
 O     17   7   5     2.296158111705   121.62877722    31.40076057
 N     17   7   5     2.527291193381   110.90735585   209.38765663
 C     19  17   7     2.758556603132   119.11048845   186.97190743
 C     19  17   7     2.761338815433   125.23545198     3.94488121
 H     21  19  17     2.060815051883   108.50083302   134.58609075
 H     21  19  17     2.046690354686   110.93935894    14.83353248
 H     21  19  17     2.063892860456   110.20192498   253.43595881
 H     20  19  17     2.048979419218   109.79354237     1.53425412
 H     20  19  17     2.062537793086   109.71058014   241.09439959
 H     20  19  17     2.062656094306   109.48002489   121.83238614
 H      4   1   2     2.046258334192   116.89443223   205.37126434
 H      2   1   3     2.036972228318   115.85690568   105.00140575
 H      3   1   2     2.040112093940   145.14673845   230.60921612
 H      9   8   6     2.046005435189   118.59166170   181.80880088
 H     10   9   8     2.042773212435   121.39964420   186.78024197
 H     14  13  11     2.038217763590   116.55743016   178.29987899
 H     15  14  13     2.040585372849   119.37860367   178.31593639
 H     16  15  14     2.045873172407   120.57694066   187.27819199
 P     13  11   6     3.428500130091   123.49279309    36.29512045
 O     36  13  11     2.761628614702   110.73772398   357.97820044
 O     36  13  11     2.944821191891    98.90109104   229.68312908
 O     36  13  11     2.959871559744   102.10318588   122.69611691
 C     38  36  13     2.797039659168   125.06767176   215.26264294
 C     39  36  13     2.791453745982   123.85468506   258.26196741
 C     40  38  36     2.851162758721   111.79073757   282.38147639
 H     40  38  36     2.053212666030   103.07669722   161.89751037
 H     40  38  36     2.054868901719   107.61968581    46.37758103
 H     42  40  38     2.061366628626   111.64949358    65.07836360
 H     42  40  38     2.059473112118   111.16434200   302.95346367
 H     42  40  38     2.063638128150   108.30409265   183.96497550
 C     41  39  36     2.851104799884   110.36971288   107.52245930
 H     41  39  36     2.055085186468   108.22356440   344.08955927
 H     41  39  36     2.054919052299   104.05407034   227.89452014
 H     48  41  39     2.063433798146   108.52405921   176.28412870
 H     48  41  39     2.060452524818   111.09450675    57.28916363
 H     48  41  39     2.060955952714   111.39733320   295.37957777

---------------------
BASIS SET INFORMATION
---------------------
There are 5 groups of distinct atoms

 Group   1 Type C   : 11s6p2d contracted to 5s3p2d pattern {62111/411/11}
 Group   2 Type O   : 11s6p2d contracted to 5s3p2d pattern {62111/411/11}
 Group   3 Type N   : 11s6p2d contracted to 5s3p2d pattern {62111/411/11}
 Group   4 Type H   : 5s1p contracted to 3s1p pattern {311/1}
 Group   5 Type P   : 14s9p3d contracted to 5s5p2d pattern {73211/51111/21}

Atom   0C    basis set group =>   1
Atom   1C    basis set group =>   1
Atom   2C    basis set group =>   1
Atom   3C    basis set group =>   1
Atom   4C    basis set group =>   1
Atom   5C    basis set group =>   1
Atom   6O    basis set group =>   2
Atom   7C    basis set group =>   1
Atom   8C    basis set group =>   1
Atom   9C    basis set group =>   1
Atom  10C    basis set group =>   1
Atom  11C    basis set group =>   1
Atom  12N    basis set group =>   3
Atom  13C    basis set group =>   1
Atom  14C    basis set group =>   1
Atom  15C    basis set group =>   1
Atom  16C    basis set group =>   1
Atom  17O    basis set group =>   2
Atom  18N    basis set group =>   3
Atom  19C    basis set group =>   1
Atom  20C    basis set group =>   1
Atom  21H    basis set group =>   4
Atom  22H    basis set group =>   4
Atom  23H    basis set group =>   4
Atom  24H    basis set group =>   4
Atom  25H    basis set group =>   4
Atom  26H    basis set group =>   4
Atom  27H    basis set group =>   4
Atom  28H    basis set group =>   4
Atom  29H    basis set group =>   4
Atom  30H    basis set group =>   4
Atom  31H    basis set group =>   4
Atom  32H    basis set group =>   4
Atom  33H    basis set group =>   4
Atom  34H    basis set group =>   4
Atom  35P    basis set group =>   5
Atom  36O    basis set group =>   2
Atom  37O    basis set group =>   2
Atom  38O    basis set group =>   2
Atom  39C    basis set group =>   1
Atom  40C    basis set group =>   1
Atom  41C    basis set group =>   1
Atom  42H    basis set group =>   4
Atom  43H    basis set group =>   4
Atom  44H    basis set group =>   4
Atom  45H    basis set group =>   4
Atom  46H    basis set group =>   4
Atom  47C    basis set group =>   1
Atom  48H    basis set group =>   4
Atom  49H    basis set group =>   4
Atom  50H    basis set group =>   4
Atom  51H    basis set group =>   4
Atom  52H    basis set group =>   4
---------------------------------
AUXILIARY/J BASIS SET INFORMATION
---------------------------------
There are 5 groups of distinct atoms

 Group   1 Type C   : 12s5p4d2f1g contracted to 6s4p3d1f1g pattern {711111/2111/211/2/1}
 Group   2 Type O   : 12s5p4d2f1g contracted to 6s4p3d1f1g pattern {711111/2111/211/2/1}
 Group   3 Type N   : 12s5p4d2f1g contracted to 6s4p3d1f1g pattern {711111/2111/211/2/1}
 Group   4 Type H   : 5s2p1d contracted to 3s1p1d pattern {311/2/1}
 Group   5 Type P   : 14s5p5d2f1g contracted to 8s4p3d1f1g pattern {71111111/2111/311/2/1}

Atom   0C    basis set group =>   1
Atom   1C    basis set group =>   1
Atom   2C    basis set group =>   1
Atom   3C    basis set group =>   1
Atom   4C    basis set group =>   1
Atom   5C    basis set group =>   1
Atom   6O    basis set group =>   2
Atom   7C    basis set group =>   1
Atom   8C    basis set group =>   1
Atom   9C    basis set group =>   1
Atom  10C    basis set group =>   1
Atom  11C    basis set group =>   1
Atom  12N    basis set group =>   3
Atom  13C    basis set group =>   1
Atom  14C    basis set group =>   1
Atom  15C    basis set group =>   1
Atom  16C    basis set group =>   1
Atom  17O    basis set group =>   2
Atom  18N    basis set group =>   3
Atom  19C    basis set group =>   1
Atom  20C    basis set group =>   1
Atom  21H    basis set group =>   4
Atom  22H    basis set group =>   4
Atom  23H    basis set group =>   4
Atom  24H    basis set group =>   4
Atom  25H    basis set group =>   4
Atom  26H    basis set group =>   4
Atom  27H    basis set group =>   4
Atom  28H    basis set group =>   4
Atom  29H    basis set group =>   4
Atom  30H    basis set group =>   4
Atom  31H    basis set group =>   4
Atom  32H    basis set group =>   4
Atom  33H    basis set group =>   4
Atom  34H    basis set group =>   4
Atom  35P    basis set group =>   5
Atom  36O    basis set group =>   2
Atom  37O    basis set group =>   2
Atom  38O    basis set group =>   2
Atom  39C    basis set group =>   1
Atom  40C    basis set group =>   1
Atom  41C    basis set group =>   1
Atom  42H    basis set group =>   4
Atom  43H    basis set group =>   4
Atom  44H    basis set group =>   4
Atom  45H    basis set group =>   4
Atom  46H    basis set group =>   4
Atom  47C    basis set group =>   1
Atom  48H    basis set group =>   4
Atom  49H    basis set group =>   4
Atom  50H    basis set group =>   4
Atom  51H    basis set group =>   4
Atom  52H    basis set group =>   4
---------------------------------
AUXILIARY/C BASIS SET INFORMATION
---------------------------------
There are 5 groups of distinct atoms

 Group   1 Type C   : 8s6p5d3f1g contracted to 8s6p4d3f1g pattern {11111111/111111/2111/111/1}
 Group   2 Type O   : 8s6p5d3f1g contracted to 8s6p4d3f1g pattern {11111111/111111/2111/111/1}
 Group   3 Type N   : 8s6p5d3f1g contracted to 8s6p4d3f1g pattern {11111111/111111/2111/111/1}
 Group   4 Type H   : 4s3p2d contracted to 4s2p1d pattern {1111/21/2}
 Group   5 Type P   : 10s7p7d5f2g contracted to 9s7p6d5f2g pattern {211111111/1111111/211111/11111/11}

Atom   0C    basis set group =>   1
Atom   1C    basis set group =>   1
Atom   2C    basis set group =>   1
Atom   3C    basis set group =>   1
Atom   4C    basis set group =>   1
Atom   5C    basis set group =>   1
Atom   6O    basis set group =>   2
Atom   7C    basis set group =>   1
Atom   8C    basis set group =>   1
Atom   9C    basis set group =>   1
Atom  10C    basis set group =>   1
Atom  11C    basis set group =>   1
Atom  12N    basis set group =>   3
Atom  13C    basis set group =>   1
Atom  14C    basis set group =>   1
Atom  15C    basis set group =>   1
Atom  16C    basis set group =>   1
Atom  17O    basis set group =>   2
Atom  18N    basis set group =>   3
Atom  19C    basis set group =>   1
Atom  20C    basis set group =>   1
Atom  21H    basis set group =>   4
Atom  22H    basis set group =>   4
Atom  23H    basis set group =>   4
Atom  24H    basis set group =>   4
Atom  25H    basis set group =>   4
Atom  26H    basis set group =>   4
Atom  27H    basis set group =>   4
Atom  28H    basis set group =>   4
Atom  29H    basis set group =>   4
Atom  30H    basis set group =>   4
Atom  31H    basis set group =>   4
Atom  32H    basis set group =>   4
Atom  33H    basis set group =>   4
Atom  34H    basis set group =>   4
Atom  35P    basis set group =>   5
Atom  36O    basis set group =>   2
Atom  37O    basis set group =>   2
Atom  38O    basis set group =>   2
Atom  39C    basis set group =>   1
Atom  40C    basis set group =>   1
Atom  41C    basis set group =>   1
Atom  42H    basis set group =>   4
Atom  43H    basis set group =>   4
Atom  44H    basis set group =>   4
Atom  45H    basis set group =>   4
Atom  46H    basis set group =>   4
Atom  47C    basis set group =>   1
Atom  48H    basis set group =>   4
Atom  49H    basis set group =>   4
Atom  50H    basis set group =>   4
Atom  51H    basis set group =>   4
Atom  52H    basis set group =>   4


           ************************************************************
           *        Program running with 128 parallel MPI-processes   *
           *              working on a common directory               *
           ************************************************************
------------------------------------------------------------------------------
                             ORCA STARTUP CALCULATIONS
                           -- RI-GTO INTEGRALS CHOSEN --
------------------------------------------------------------------------------
------------------------------------------------------------------------------
                   ___                                                        
                  /   \      - P O W E R E D   B Y -                         
                 /     \                                                     
                 |  |  |   _    _      __       _____    __    __             
                 |  |  |  | |  | |    /  \     |  _  \  |  |  /  |          
                  \  \/   | |  | |   /    \    | | | |  |  | /  /          
                 / \  \   | |__| |  /  /\  \   | |_| |  |  |/  /          
                |  |  |   |  __  | /  /__\  \  |    /   |      \           
                |  |  |   | |  | | |   __   |  |    \   |  |\   \          
                \     /   | |  | | |  |  |  |  | |\  \  |  | \   \       
                 \___/    |_|  |_| |__|  |__|  |_| \__\ |__|  \__/        
                                                                              
                      - O R C A' S   B I G   F R I E N D -                    
                                      &                                       
                       - I N T E G R A L  F E E D E R -                       
                                                                              
 v1 FN, 2020, v2 2021, v3 2022-2024                                           
------------------------------------------------------------------------------


----------------------
SHARK INTEGRAL PACKAGE
----------------------

Number of atoms                             ...     53
Number of basis functions                   ...    846
Number of shells                            ...    388
Maximum angular momentum                    ...      2
Integral batch strategy                     ... SHARK/LIBINT Hybrid
RI-J (if used) integral strategy            ... SPLIT-RIJ (Revised 2003 algorithm where possible)
Printlevel                                  ...      1
Contraction scheme used                     ... SEGMENTED contraction
Prescreening option                         ... SCHWARTZ
   Thresh                                   ... 2.500e-11
   Tcut                                     ... 2.500e-12
   Tpresel                                  ... 2.500e-12 
Coulomb Range Separation                    ... NOT USED
Exchange Range Separation                   ... Long Range
   Mu parameter                             ... 3.300e-01
   Scaling (regular/separated)              ... 1.900e-01 4.600e-01
Multipole approximations                    ... NOT USED
Finite Nucleus Model                        ... NOT USED
CABS basis                                  ... NOT available
Auxiliary Coulomb fitting basis             ... AVAILABLE
   # of basis functions in Aux-J            ...   1687
   # of shells in Aux-J                     ...    557
   Maximum angular momentum in Aux-J        ...      4
Auxiliary J/K fitting basis                 ... NOT available
Auxiliary Correlation fitting basis         ... AVAILABLE
   # of basis functions in Aux-C            ...   2601
   # of shells in Aux-C                     ...    813
   Maximum angular momentum in Aux-C        ...      4
Auxiliary 'external' fitting basis          ... NOT available

Checking pre-screening integrals            ... done (  1.1 sec) Dimension = 388
Check shell pair data                       ... done (  0.4 sec)
Shell pair information
Shell pair cut-off parameter TPreSel        ...   2.5e-12
Total number of shell pairs                 ...     75466
Shell pairs after pre-screening             ...     52063
Total number of primitive shell pairs       ...    247477
Primitive shell pairs kept                  ...    107597
          la=0 lb=0:  15461 shell pairs
          la=1 lb=0:  17409 shell pairs
          la=1 lb=1:   4931 shell pairs
          la=2 lb=0:   8323 shell pairs
          la=2 lb=1:   4748 shell pairs
          la=2 lb=2:   1191 shell pairs

Calculating one electron integrals          ... done (  0.1 sec)
Calculating RI/J V-Matrix + Cholesky decomp.... done (  1.5 sec)
Calculating RI/C V-Matrix + Cholesky decomp.... done (  3.2 sec)
Calculating Nuclear repulsion               ... done (  0.0 sec) ENN=   3278.298501865174 Eh

Diagonalization of the overlap matrix:
Smallest eigenvalue                        ... 6.458e-06
Time for diagonalization                   ...    0.160 sec
Threshold for overlap eigenvalues          ... 1.000e-07
Number of eigenvalues below threshold      ... 0
Time for construction of square roots      ...    0.349 sec
Total time needed                          ...    3.891 sec

-------------------
DFT GRID GENERATION
-------------------

General Integration Accuracy     IntAcc      ... 4.388
Radial Grid Type                 RadialGrid  ... OptM3 with GC (2021)
Angular Grid (max. ang.)         AngularGrid ... 4 (Lebedev-302)
Angular grid pruning method      GridPruning ... 4 (adaptive)
Weight generation scheme         WeightScheme... mBecke (2022)
Basis function cutoff            BFCut       ... 1.0000e-11
Integration weight cutoff        WCut        ... 1.0000e-14
Partially contracted basis set               ... off
Rotationally invariant grid construction     ... off
Angular grids for H and He will be reduced by one unit

Total number of grid points                  ...   250198
Total number of batches                      ...     3933
Average number of points per batch           ...       63
Average number of grid points per atom       ...     4721

--------------------
COSX GRID GENERATION
--------------------

GRIDX 1
-------
General Integration Accuracy     IntAcc      ... 3.816
Radial Grid Type                 RadialGrid  ... OptM3 with GC (2021)
Angular Grid (max. ang.)         AngularGrid ... 1 (Lebedev-50)
Angular grid pruning method      GridPruning ... 4 (adaptive)
Weight generation scheme         WeightScheme... mBecke (2022)
Basis function cutoff            BFCut       ... 1.0000e-11
Integration weight cutoff        WCut        ... 1.0000e-14
Partially contracted basis set               ... on
Rotationally invariant grid construction     ... off
Angular grids for H and He will be reduced by one unit

Total number of grid points                  ...    32766
Total number of batches                      ...      284
Average number of points per batch           ...      115
Average number of grid points per atom       ...      618
UseSFitting                                  ... on

GRIDX 2
-------
General Integration Accuracy     IntAcc      ... 4.020
Radial Grid Type                 RadialGrid  ... OptM3 with GC (2021)
Angular Grid (max. ang.)         AngularGrid ... 2 (Lebedev-110)
Angular grid pruning method      GridPruning ... 4 (adaptive)
Weight generation scheme         WeightScheme... mBecke (2022)
Basis function cutoff            BFCut       ... 1.0000e-11
Integration weight cutoff        WCut        ... 1.0000e-14
Partially contracted basis set               ... on
Rotationally invariant grid construction     ... off
Angular grids for H and He will be reduced by one unit

Total number of grid points                  ...    68099
Total number of batches                      ...      556
Average number of points per batch           ...      122
Average number of grid points per atom       ...     1285
UseSFitting                                  ... on

GRIDX 3
-------
General Integration Accuracy     IntAcc      ... 4.338
Radial Grid Type                 RadialGrid  ... OptM3 with GC (2021)
Angular Grid (max. ang.)         AngularGrid ... 3 (Lebedev-194)
Angular grid pruning method      GridPruning ... 4 (adaptive)
Weight generation scheme         WeightScheme... mBecke (2022)
Basis function cutoff            BFCut       ... 1.0000e-11
Integration weight cutoff        WCut        ... 1.0000e-14
Partially contracted basis set               ... on
Rotationally invariant grid construction     ... off
Angular grids for H and He will be reduced by one unit

Total number of grid points                  ...   148767
Total number of batches                      ...     1191
Average number of points per batch           ...      124
Average number of grid points per atom       ...     2807
UseSFitting                                  ... on
Initializing property integral containers    ... done (  1.0 sec)

SHARK setup successfully completed in  91.0 seconds

Maximum memory used throughout the entire STARTUP-calculation: 108.6 MB


           ************************************************************
           *        Program running with 128 parallel MPI-processes   *
           *              working on a common directory               *
           ************************************************************
-------------------------------------------------------------------------------
                                 ORCA GUESS
                   Start orbitals & Density for SCF / CASSCF
-------------------------------------------------------------------------------

------------
SCF SETTINGS
------------
Hamiltonian:
 Density Functional     Method          .... DFT(GTOs)
 Exchange Functional    Exchange        .... WB88
 Correlation Functional Correlation     .... LYP
 LDA part of GGA corr.  LDAOpt          .... VWN-5
 Gradients option       PostSCFGGA      .... off
 Hybrid DFT is turned on
   Fraction HF Exchange ScalHFX         ....  0.190000
   Scaling of DF-GGA-X  ScalDFX         ....  0.350000
   Scaling of DF-GGA-C  ScalDFC         ....  0.810000
   Scaling of DF-LDA-C  ScalLDAC        ....  1.000000
   Perturbative correction              ....  0.000000
 Long-range corrected/Screened/Range-Separated Hybrid DFT is turned on
   Amount of maximum screened exact exchange              ....  0.460000
   Range separation parameter mu (erf(mu*r12)/r12)        ....  0.330000
 RI-approximation to the Coulomb term is turned on
   Number of AuxJ basis functions       .... 1687
   RIJ-COSX (HFX calculated with COS-X)).... on


General Settings:
 Integral files         IntName         .... hbq-dcp-es
 Hartree-Fock type      HFTyp           .... RHF
 Total Charge           Charge          ....    1
 Multiplicity           Mult            ....    1
 Number of Electrons    NEL             ....  218
 Basis Dimension        Dim             ....  846
 Nuclear Repulsion      ENuc            ....   3278.2985018652 Eh

Convergence Acceleration:
 AO-DIIS                CNVDIIS         .... on
   Start iteration      DIISMaxIt       ....    12
   Startup error        DIISStart       ....  0.200000
   # of expansion vecs  DIISMaxEq       ....     5
   Bias factor          DIISBfac        ....   1.050
   Max. coefficient     DIISMaxC        ....  10.000
 MO-DIIS                CNVKDIIS        .... off
 Trust-Rad. Augm. Hess. CNVTRAH         .... auto
   Auto Start mean grad. ratio tolernc. ....  1.125000
   Auto Start start iteration           ....    50
   Auto Start num. interpolation iter.  ....    10
   Max. Number of Micro iterations      ....    24
   Max. Number of Macro iterations      .... Maxiter - #DIIS iter
   Number of Davidson start vectors     ....     2
   Converg. threshold    (grad. norm)   ....   1.000e-05
   Grad. Scal. Fac. for Micro threshold ....   0.100
   Minimum threshold for Micro iter.    ....   1.000e-02
   NR start threshold (gradient norm)   ....   1.000e-04
   Initial trust radius                 ....   0.400
   Minimum AH scaling param. (alpha)    ....   1.000
   Maximum AH scaling param. (alpha)    .... 1000.000
   Quad. conv. algorithm                .... NR
   White noise on init. David. guess    .... on
   Maximum white noise                  ....   0.010
   Pseudo random numbers                .... off
   Inactive MOs                         .... canonical
   Orbital update algorithm             .... Taylor
   Preconditioner                       .... Diag
   Full preconditioner red. dimension   ....   250
 SOSCF                  CNVSOSCF        .... on
   Start iteration      SOSCFMaxIt      ....   150
   Startup grad/error   SOSCFStart      ....  0.003300
   Hessian update       SOSCFHessUp     .... L-BFGS
 Level Shifting         CNVShift        .... on
   Level shift para.    LevelShift      ....    0.2500
   Turn off err/grad.   ShiftErr        ....    0.0010
 Zerner damping         CNVZerner       .... off
 Static damping         CNVDamp         .... on
   Fraction old density DampFac         ....    0.7000
   Max. Damping (<1)    DampMax         ....    0.9800
   Min. Damping (>=0)   DampMin         ....    0.0000
   Turn off err/grad.   DampErr         ....    0.1000

SCF Procedure:
 Maximum # iterations   MaxIter         ....   125
 SCF integral mode      SCFMode         .... Direct
   Integral package                     .... SHARK and LIBINT hybrid scheme
 Reset frequency        DirectResetFreq ....    20
 Integral Threshold     Thresh          ....  2.500e-11 Eh
 Primitive CutOff       TCut            ....  2.500e-12 Eh

Convergence Tolerance:
 Convergence Check Mode ConvCheckMode   .... Total+1el-Energy
 Convergence forced     ConvForced      .... 1
 Energy Change          TolE            ....  1.000e-08 Eh
 1-El. energy change                    ....  1.000e-05 Eh
 Orbital Gradient       TolG            ....  1.000e-05
 Orbital Rotation angle TolX            ....  1.000e-05
 DIIS Error             TolErr          ....  5.000e-07

------------------------------
INITIAL GUESS: MODEL POTENTIAL
------------------------------
Loading Hartree-Fock densities                     ... done
Calculating cut-offs                               ... done
Initializing the effective Hamiltonian             ... done
Setting up the integral package (SHARK)            ... done
Starting the Coulomb interaction                   ... done (   0.9 sec)
Making the grid                                    ... done (  12.4 sec)
Mapping shells                                     ... done
Starting the XC term evaluation                    ... done (   0.8 sec)
  promolecular density results
     # of electrons  =    218.981384220
     EX              =   -191.096191505
     EC              =     -7.479283525
     EX+EC           =   -198.575475030
Transforming the Hamiltonian                       ... done (   4.1 sec)
Diagonalizing the Hamiltonian                      ... done (   0.2 sec)
Back transforming the eigenvectors                 ... done (   6.7 sec)
Now organizing SCF variables                       ... done
                      ------------------
                      INITIAL GUESS DONE (  59.2 sec)
                      ------------------
             **** ENERGY FILE WAS UPDATED (hbq-dcp-es.en.tmp) ****
Finished Guess after 109.5 sec
Maximum memory used throughout the entire GUESS-calculation: 85.3 MB


           ************************************************************
           *        Program running with 128 parallel MPI-processes   *
           *              working on a common directory               *
           ************************************************************

-------------------------------------------------------------------------------------------
                                      ORCA LEAN-SCF
                              memory conserving SCF solver
-------------------------------------------------------------------------------------------

--------------------
CPCM SOLVATION MODEL
--------------------
CPCM parameters:
  Epsilon                                         ...      80.1510
  Refrac                                          ...       1.3328
  Rsolv                                           ...       1.3000
  Surface type                                    ... GAUSSIAN VDW
  Discretization scheme                           ... Constant charge density
    Threshold for H atoms                         ...       5.0000 (charges/Ang^2)
    Threshold for non-H atoms                     ...       5.0000 (charges/Ang^2)
  Epsilon function type                           ...         CPCM
Solvent:                                          ... WATER
Radii:
  Scheme                                          ... Element-dependent radii
  Radius for C  used is    3.8550 Bohr (=   2.0400 Ang.)
  Radius for O  used is    3.4469 Bohr (=   1.8240 Ang.)
  Radius for N  used is    3.5149 Bohr (=   1.8600 Ang.)
  Radius for H  used is    2.4944 Bohr (=   1.3200 Ang.)
  Radius for P  used is    4.0818 Bohr (=   2.1600 Ang.)
Calculating surface                               ...        done! (  0.0s)
Cavity surface points                             ...         4445
Cavity Volume                                     ...    3171.2253
Cavity Surface-area                               ...    1569.9946
Calculating surface distance matrix               ...        done! (  0.2s)
Performing Cholesky decomposition & store         ...        done! (  3.8s)
Overall time for CPCM initialization              ...                 4.0s

----------------------------------------D-I-I-S--------------------------------------------
Iteration    Energy (Eh)           Delta-E    RMSDP     MaxDP     DIISErr   Damp  Time(sec)
-------------------------------------------------------------------------------------------
               ***  Starting incremental Fock matrix formation  ***
    1    -1640.5851392978743206     0.00e+00  1.42e-03  1.14e-01  3.35e-01  0.700 147.9
Warning: op=0 Small HOMO/LUMO gap (   0.089) - skipping pre-diagonalization
         Will do a full diagonalization
    2    -1640.8979942592791303    -3.13e-01  1.19e-03  1.04e-01  1.38e-01  0.700 166.7
                               ***Turning on AO-DIIS***
    3    -1641.0303365662562101    -1.32e-01  6.40e-04  5.05e-02  4.43e-02  0.700 148.3
    4    -1641.1095595491028689    -7.92e-02  1.38e-03  1.22e-01  2.60e-02  0.000 144.6
    5    -1641.2841133478182201    -1.75e-01  2.01e-04  1.95e-02  5.06e-03  0.000 143.9
                              *** Initializing SOSCF ***
---------------------------------------S-O-S-C-F--------------------------------------
Iteration    Energy (Eh)           Delta-E    RMSDP     MaxDP     MaxGrad    Time(sec)
--------------------------------------------------------------------------------------
    6    -1641.2847661824475836    -6.53e-04  1.03e-04  1.11e-02  1.41e-03   162.3
               *** Restarting incremental Fock matrix formation ***
    7    -1641.2848733227842786    -1.07e-04  1.09e-04  1.16e-02  1.72e-03   143.7
    8    -1641.2849745011876621    -1.01e-04  1.19e-04  1.42e-02  9.53e-04   143.6
    9    -1641.2849963943131115    -2.19e-05  4.67e-05  3.28e-03  4.53e-04   148.3
   10    -1641.2850128681870956    -1.65e-05  9.37e-06  7.04e-04  1.08e-04   146.3
   11    -1641.2850133246115547    -4.56e-07  4.02e-06  3.39e-04  6.09e-05   142.4
   12    -1641.2850138855424120    -5.61e-07  3.00e-06  2.19e-04  3.34e-05   147.9
   13    -1641.2850139563356606    -7.08e-08  2.32e-06  2.50e-04  2.53e-05   144.7
   14    -1641.2850140014948011    -4.52e-08  2.00e-06  1.35e-04  1.89e-05   147.8
   15    -1641.2850140148661922    -1.34e-08  2.77e-06  2.31e-04  1.05e-05   142.0
[...]
139:   3110.20   0.002867   14.49  0.000288  (-0.011080  0.012325  0.003602)
140:   3114.55   0.003319   16.77  0.000333  ( 0.012710  0.011974 -0.005254)
141:   3123.76   0.005686   28.73  0.000568  ( 0.000387  0.018366  0.015184)
142:   3129.05   0.002138   10.80  0.000213  (-0.001185  0.010886  0.009660)
143:   3132.30   0.003772   19.06  0.000376  (-0.006802 -0.005159  0.017403)
144:   3133.31   0.004378   22.12  0.000436  (-0.001920 -0.020705 -0.001902)
145:   3139.28   0.004138   20.91  0.000411  (-0.017568  0.004523  0.009068)
146:   3144.76   0.002908   14.70  0.000289  (-0.007558 -0.014974 -0.002695)
147:   3174.52   0.002503   12.65  0.000246  ( 0.006030  0.014398 -0.001542)
148:   3177.61   0.003190   16.12  0.000313  ( 0.002411 -0.007077 -0.016044)
149:   3196.64   0.000342    1.73  0.000033  ( 0.005064 -0.001875  0.002048)
150:   3198.16   0.001107    5.59  0.000108  (-0.000955  0.007287 -0.007347)
151:   3208.95   0.001542    7.79  0.000150  ( 0.006372  0.008353 -0.006293)
152:   3211.12   0.000522    2.64  0.000051  (-0.000362  0.003448 -0.006220)
153:   3218.69   0.000090    0.45  0.000009  (-0.002361 -0.000144 -0.001757)
154:   3231.41   0.000244    1.23  0.000024  ( 0.003744 -0.000283  0.003080)
155:   3249.90   0.001502    7.59  0.000144  (-0.003489  0.009539 -0.006412)
156:   3251.86   0.000757    3.83  0.000073  (-0.005498  0.002499 -0.006015)
157:   3255.09   0.000066    0.34  0.000006  ( 0.002353  0.000632  0.000652)
158:   3260.44   0.005059   25.57  0.000484  ( 0.012461  0.017807 -0.003442)

* The epsilon (eps) is given for a Dirac delta lineshape.
** The dipole moment derivative (T) already includes vibrational overlap.

The first frequency considered to be a vibration is 7
The total number of vibrations considered is 152


--------------------------
THERMOCHEMISTRY AT 298.15K
--------------------------

Temperature         ...   298.15 K
Pressure            ...     1.00 atm
Total Mass          ...   415.41 AMU
Quasi RRHO          ...     True
Cut-Off Frequency   ...     1.00 cm^-1

Throughout the following assumptions are being made:
  (1) The electronic state is orbitally nondegenerate
  (2) There are no thermally accessible electronically excited states
  (3) Hindered rotations indicated by low frequency modes are not
      treated as such but are treated as vibrations and this may
      cause some error
  (4) All equations used are the standard statistical mechanics
      equations for an ideal gas
  (5) All vibrations are strictly harmonic

freq.      17.23  E(vib)   ...       0.57 
freq.      34.88  E(vib)   ...       0.54 
freq.      42.67  E(vib)   ...       0.53 
freq.      48.06  E(vib)   ...       0.53 
freq.      51.38  E(vib)   ...       0.52 
freq.      59.55  E(vib)   ...       0.51 
freq.      64.08  E(vib)   ...       0.51 
freq.      73.36  E(vib)   ...       0.49 
freq.      78.02  E(vib)   ...       0.49 
freq.      97.45  E(vib)   ...       0.46 
freq.     107.25  E(vib)   ...       0.45 
freq.     111.17  E(vib)   ...       0.45 
freq.     121.05  E(vib)   ...       0.44 
freq.     137.29  E(vib)   ...       0.42 
freq.     155.12  E(vib)   ...       0.40 
freq.     171.00  E(vib)   ...       0.38 
freq.     190.35  E(vib)   ...       0.36 
freq.     202.25  E(vib)   ...       0.35 
freq.     217.79  E(vib)   ...       0.33 
freq.     225.50  E(vib)   ...       0.33 
freq.     236.59  E(vib)   ...       0.32 
freq.     240.99  E(vib)   ...       0.31 
freq.     241.44  E(vib)   ...       0.31 
freq.     253.02  E(vib)   ...       0.30 
freq.     286.29  E(vib)   ...       0.27 
freq.     308.12  E(vib)   ...       0.26 
freq.     318.41  E(vib)   ...       0.25 
freq.     356.00  E(vib)   ...       0.22 
freq.     381.72  E(vib)   ...       0.21 
freq.     391.36  E(vib)   ...       0.20 
freq.     395.64  E(vib)   ...       0.20 
freq.     413.58  E(vib)   ...       0.19 
freq.     419.90  E(vib)   ...       0.18 
freq.     443.01  E(vib)   ...       0.17 
freq.     444.52  E(vib)   ...       0.17 
freq.     470.04  E(vib)   ...       0.16 
freq.     486.78  E(vib)   ...       0.15 
freq.     504.01  E(vib)   ...       0.14 
freq.     509.63  E(vib)   ...       0.14 
freq.     521.51  E(vib)   ...       0.13 
freq.     546.43  E(vib)   ...       0.12 
freq.     562.55  E(vib)   ...       0.11 
freq.     571.21  E(vib)   ...       0.11 
freq.     605.72  E(vib)   ...       0.10 
freq.     620.45  E(vib)   ...       0.09 
freq.     634.66  E(vib)   ...       0.09 
freq.     663.69  E(vib)   ...       0.08 
freq.     676.52  E(vib)   ...       0.08 
freq.     707.52  E(vib)   ...       0.07 
freq.     740.14  E(vib)   ...       0.06 
freq.     758.60  E(vib)   ...       0.06 
freq.     773.36  E(vib)   ...       0.05 
freq.     782.56  E(vib)   ...       0.05 
freq.     785.67  E(vib)   ...       0.05 
freq.     799.82  E(vib)   ...       0.05 
freq.     805.11  E(vib)   ...       0.05 
freq.     812.14  E(vib)   ...       0.05 
freq.     817.15  E(vib)   ...       0.05 
freq.     825.46  E(vib)   ...       0.04 
freq.     846.17  E(vib)   ...       0.04 
freq.     855.95  E(vib)   ...       0.04 
freq.     867.39  E(vib)   ...       0.04 
freq.     908.37  E(vib)   ...       0.03 
freq.     936.56  E(vib)   ...       0.03 
freq.     950.75  E(vib)   ...       0.03 
freq.     966.88  E(vib)   ...       0.03 
freq.     988.18  E(vib)   ...       0.02 
freq.     994.76  E(vib)   ...       0.02 
freq.     997.67  E(vib)   ...       0.02 
freq.    1001.33  E(vib)   ...       0.02 
freq.    1037.46  E(vib)   ...       0.02 
freq.    1044.13  E(vib)   ...       0.02 
freq.    1046.43  E(vib)   ...       0.02 
freq.    1062.41  E(vib)   ...       0.02 
freq.    1069.03  E(vib)   ...       0.02 
freq.    1075.86  E(vib)   ...       0.02 
freq.    1087.12  E(vib)   ...       0.02 
freq.    1098.99  E(vib)   ...       0.02 
freq.    1123.81  E(vib)   ...       0.01 
freq.    1126.62  E(vib)   ...       0.01 
freq.    1131.89  E(vib)   ...       0.01 
freq.    1146.10  E(vib)   ...       0.01 
freq.    1161.81  E(vib)   ...       0.01 
freq.    1175.22  E(vib)   ...       0.01 
freq.    1182.88  E(vib)   ...       0.01 
freq.    1187.16  E(vib)   ...       0.01 
freq.    1191.08  E(vib)   ...       0.01 
freq.    1193.47  E(vib)   ...       0.01 
freq.    1197.01  E(vib)   ...       0.01 
freq.    1233.74  E(vib)   ...       0.01 
freq.    1262.12  E(vib)   ...       0.01 
freq.    1269.93  E(vib)   ...       0.01 
freq.    1284.33  E(vib)   ...       0.01 
freq.    1297.14  E(vib)   ...       0.01 
freq.    1303.48  E(vib)   ...       0.01 
freq.    1321.52  E(vib)   ...       0.01 
freq.    1323.97  E(vib)   ...       0.01 
freq.    1330.43  E(vib)   ...       0.01 
freq.    1336.09  E(vib)   ...       0.01 
freq.    1358.51  E(vib)   ...       0.01 
freq.    1406.59  E(vib)   ...       0.00 
freq.    1410.78  E(vib)   ...       0.00 
freq.    1413.98  E(vib)   ...       0.00 
freq.    1425.74  E(vib)   ...       0.00 
freq.    1427.89  E(vib)   ...       0.00 
freq.    1434.51  E(vib)   ...       0.00 
freq.    1446.71  E(vib)   ...       0.00 
freq.    1466.82  E(vib)   ...       0.00 
freq.    1474.40  E(vib)   ...       0.00 
freq.    1475.73  E(vib)   ...       0.00 
freq.    1481.47  E(vib)   ...       0.00 
freq.    1481.85  E(vib)   ...       0.00 
freq.    1484.42  E(vib)   ...       0.00 
freq.    1485.46  E(vib)   ...       0.00 
freq.    1490.26  E(vib)   ...       0.00 
freq.    1491.05  E(vib)   ...       0.00 
freq.    1497.18  E(vib)   ...       0.00 
freq.    1500.98  E(vib)   ...       0.00 
freq.    1509.35  E(vib)   ...       0.00 
freq.    1514.48  E(vib)   ...       0.00 
freq.    1518.72  E(vib)   ...       0.00 
freq.    1539.69  E(vib)   ...       0.00 
freq.    1563.74  E(vib)   ...       0.00 
freq.    1591.35  E(vib)   ...       0.00 
freq.    1645.18  E(vib)   ...       0.00 
freq.    1665.04  E(vib)   ...       0.00 
freq.    1791.28  E(vib)   ...       0.00 
freq.    2632.99  E(vib)   ...       0.00 
freq.    3052.87  E(vib)   ...       0.00 
freq.    3056.43  E(vib)   ...       0.00 
freq.    3057.24  E(vib)   ...       0.00 
freq.    3058.62  E(vib)   ...       0.00 
freq.    3110.20  E(vib)   ...       0.00 
freq.    3114.55  E(vib)   ...       0.00 
freq.    3123.76  E(vib)   ...       0.00 
freq.    3129.05  E(vib)   ...       0.00 
freq.    3132.30  E(vib)   ...       0.00 
freq.    3133.31  E(vib)   ...       0.00 
freq.    3139.28  E(vib)   ...       0.00 
freq.    3144.76  E(vib)   ...       0.00 
freq.    3174.52  E(vib)   ...       0.00 
freq.    3177.61  E(vib)   ...       0.00 
freq.    3196.64  E(vib)   ...       0.00 
freq.    3198.16  E(vib)   ...       0.00 
freq.    3208.95  E(vib)   ...       0.00 
freq.    3211.12  E(vib)   ...       0.00 
freq.    3218.69  E(vib)   ...       0.00 
freq.    3231.41  E(vib)   ...       0.00 
freq.    3249.90  E(vib)   ...       0.00 
freq.    3251.86  E(vib)   ...       0.00 
freq.    3255.09  E(vib)   ...       0.00 
freq.    3260.44  E(vib)   ...       0.00 

------------
INNER ENERGY
------------

The inner energy is: U= E(el) + E(ZPE) + E(vib) + E(rot) + E(trans)
    E(el)   - is the total energy from the electronic structure calculation
              = E(kin-el) + E(nuc-el) + E(el-el) + E(nuc-nuc)
    E(ZPE)  - the the zero temperature vibrational energy from the frequency calculation
    E(vib)  - the the finite temperature correction to E(ZPE) due to population
              of excited vibrational states
    E(rot)  - is the rotational thermal energy
    E(trans)- is the translational thermal energy

Summary of contributions to the inner energy U:
Electronic energy                ...  -1641.26260543 Eh
Zero point energy                ...      0.42930913 Eh     269.39 kcal/mol
Thermal vibrational correction   ...      0.02464749 Eh      15.47 kcal/mol
Thermal rotational correction    ...      0.00141627 Eh       0.89 kcal/mol
Thermal translational correction ...      0.00141627 Eh       0.89 kcal/mol
-----------------------------------------------------------------------
Total thermal energy                  -1640.80581627 Eh


Summary of corrections to the electronic energy:
(perhaps to be used in another calculation)
Total thermal correction                  0.02748003 Eh      17.24 kcal/mol
Non-thermal (ZPE) correction              0.42930913 Eh     269.39 kcal/mol
-----------------------------------------------------------------------
Total correction                          0.45678917 Eh     286.64 kcal/mol


--------
ENTHALPY
--------

The enthalpy is H = U + kB*T
                kB is Boltzmann's constant
Total thermal energy              ...  -1640.80581627 Eh 
Thermal Enthalpy correction       ...      0.00094421 Eh       0.59 kcal/mol
-----------------------------------------------------------------------
Total Enthalpy                    ...  -1640.80487206 Eh


Note: Only C1 symmetry has been detected, increase convergence thresholds 
      if your molecule has a higher symmetry. Symmetry factor of 1.0 is   
      used for the rotational entropy correction. 
 

Note: Rotational entropy computed according to Herzberg 
Infrared and Raman Spectra, Chapter V,1, Van Nostrand Reinhold, 1945 
Point Group:  C1, Symmetry Number:   1  
Rotational constants in cm-1:     0.006660     0.006086     0.004168 

Vibrational entropy computed according to the QRRHO of S. Grimme
Chem.Eur.J. 2012 18 9955 using a reference frequency of 100.0 cm-1


-------
ENTROPY
-------

The entropy contributions are T*S = T*(S(el)+S(vib)+S(rot)+S(trans))
     S(el)   - electronic entropy
     S(vib)  - vibrational entropy
     S(rot)  - rotational entropy
     S(trans)- translational entropy
The entropies will be listed as multiplied by the temperature to get
units of energy

Electronic entropy                ...      0.00000000 Eh      0.00 kcal/mol
Vibrational entropy               ...      0.04407880 Eh     27.66 kcal/mol
Rotational entropy                ...      0.01687245 Eh     10.59 kcal/mol
Translational entropy             ...      0.02088813 Eh     13.11 kcal/mol
-----------------------------------------------------------------------
Final entropy term                ...      0.08183939 Eh     51.35 kcal/mol

In case the symmetry of your molecule has not been determined correctly
or in case you have a reason to use a different symmetry number we print 
out the resulting rotational entropy values for sn=1,12:

 non-linear molecules -----------------------------------
|  sn= 1 | S(rot)=       0.01687245 Eh     10.59 kcal/mol|
|  sn= 2 | S(rot)=       0.01621800 Eh     10.18 kcal/mol|
|  sn= 3 | S(rot)=       0.01583516 Eh      9.94 kcal/mol|
|  sn= 4 | S(rot)=       0.01556354 Eh      9.77 kcal/mol|
|  sn= 5 | S(rot)=       0.01535285 Eh      9.63 kcal/mol|
|  sn= 6 | S(rot)=       0.01518071 Eh      9.53 kcal/mol|
|  sn= 7 | S(rot)=       0.01503516 Eh      9.43 kcal/mol|
|  sn= 8 | S(rot)=       0.01490908 Eh      9.36 kcal/mol|
|  sn= 9 | S(rot)=       0.01479788 Eh      9.29 kcal/mol|
|  sn=10 | S(rot)=       0.01469840 Eh      9.22 kcal/mol|
|  sn=11 | S(rot)=       0.01460841 Eh      9.17 kcal/mol|
|  sn=12 | S(rot)=       0.01452625 Eh      9.12 kcal/mol|
 linear molecules ---------------------------------------
|  Dinfh | S(rot)=       0.01050028 Eh      6.59 kcal/mol|
|  Cinfv | S(rot)=       0.01115474 Eh      7.00 kcal/mol|
 --------------------------------------------------------


-------------------
GIBBS FREE ENERGY
-------------------

The Gibbs free energy is G = H - T*S

Total enthalpy                    ...  -1640.80487206 Eh 
Total entropy correction          ...     -0.08183939 Eh    -51.35 kcal/mol
-----------------------------------------------------------------------
Final Gibbs free energy         ...  -1640.88671145 Eh

For completeness - the Gibbs free energy minus the electronic energy
G-E(el)                           ...      0.37589398 Eh    235.88 kcal/mol



--------------------------------
SUGGESTED CITATIONS FOR THIS RUN
--------------------------------

Below you find a list of papers that are relevant to this ORCA run
We neither can nor want to force you to cite these papers, but we appreciate if you do
You receive ORCA, which is the product of decades of hard work by many enthusiastic individuals, for free
The only thing we kindly ask in return is that you cite our papers,
We deeply appreciate it, if you show your appreciation for ORCA by not just citing the generic ORCA reference.

Please note that relegating all ORCA citations to the supporting information does *not* help us.
SI sections are not indexed - citations you put there will not count into any citation statistics
But we need these citations in order to attract the funding resources that allow us to do what we are doing

Therefore, if you are a happy ORCA user, please consider citing a few of the papers listed below in the main body of your paper

In addition to the list printed below, the program has created the file hbq-dcp-es.bibtex that contains the list in bibtex format
You can import this file easily into all common literature databanks and citation aid programs


List of essential papers. We consider these as the minimum necessary citations

  1. Neese,F.
     Software update: the ORCA program system, version 5.0
     WIRES Comput. Molec. Sci., 2022 12(1)e1606
     doi.org/10.1002/wcms.1606

List of papers to cite with high priority. The work reported in these papers was absolutely
necessary for this run to complete.
Our perspective: the developers of density functionals and basis sets usually get cited in chemistry papers
Good! But without the algorithms to do something with them, the functionals or basis sets would not do anything.
Hence, in our opinion, the algorithm design and method developments papers are equally worthy of getting cited

  1. Neese,F.; Olbrich,G.
     Efficient use of the resolution of the identity approximation in time-dependent density functional calculations with hybrid density functionals
     Chem. Phys. Lett., 2002 362 170-178
     doi.org/10.1016/s0009-2614(02)01053-9
  2. Neese,F.
     An improvement of the resolution of the identity approximation for the formation of the Coulomb matrix
     J. Comp. Chem., 2003 24(14)1740-1747
     doi.org/10.1002/jcc.10318
  3. Neese,F.; Wennmohs,F.; Hansen,A.; Becker,U.
     Efficient, approximate and parallel Hartree-Fock and hybrid DFT calculations. A 'chain-of-spheres' algorithm for the Hartree-Fock exchange
     Chem. Phys., 2009 356(1-3)98-109
     doi.org/10.1016/j.chemphys.2008.10.036
  4. Petrenko,T.; Kossmann,S.; Neese,F.
     Efficient time-dependent density functional theory approximations for hybrid density functionals: Analytical gradients and parallelization
     J. Chem. Phys., 2011 134 054116
     doi.org/10.1063/1.3533441
  5. Bykov,D.; Petrenko,T.; Izsak,R.; Kossmann,S.; Becker,U.; Valeev,E.; Neese,F.
     Efficient implementation of the analytic second derivatives of Hartree-Fock and hybrid DFT energies: a detailed analysis of different approximations
     Molec. Phys., 2015 113 1961-1977
     doi.org/10.1080/00268976.2015.1025114
  6. Garcia-Rates,M.; Neese,F.
     Effect of the Solute Cavity on the Solvation Energy and its Derivatives within the Framework of the Gaussian Charge Scheme
     J. Comput. Chem., 2020 41 922-939
     doi.org/10.1002/jcc.26139
  7. Helmich-Paris,B.; de Souza,B.; Neese,F.; Izsák,R.
     An improved chain of spheres for exchange algorithm
     J. Chem. Phys., 2021 155 104109
     doi.org/doi: 10.1063/5.0058766.
  8. Neese,F.
     The SHARK Integral Generation and Digestion System
     J. Comp. Chem., 2022  1-16
     doi.org/10.1002/jcc.26942

List of suggested additional citations. These are papers that are important in the 'surrounding' of 
of this run, or papers that preceded the highly important papers. If you like your results we are grateful for a citation.

  1. Izsak,R.; Neese,F.
     An overlap fitted chain of spheres exchange method
     J. Chem. Phys., 2011 135 144105
     doi.org/10.1063/1.3646921
  2. Izsak,R.; Hansen,A.; Neese,F.
     The resolution of identity and chain of spheres approximations for the LPNO-CCSD singles Fock term
     Molec. Phys., 2012 110 2413-2417
     doi.org/10.1080/00268976.2012.687466
  3. Neese,F.
     The ORCA program system
     WIRES Comput. Molec. Sci., 2012 2(1)73-78
     doi.org/10.1002/wcms.81
  4. Izsak,R.; Neese,F.; Klopper,W.
     Robust fitting techniques in the chain of spheres approximation to the Fock exchange: The role of the complementary space
     J. Chem. Phys., 2013 139 
     doi.org/10.1063/1.4819264
  5. Neese,F.
     Software update: the ORCA program system, version 4.0
     WIRES Comput. Molec. Sci., 2018 8(1)1-6
     doi.org/10.1002/wcms.1327
  6. Neese,F.; Wennmohs,F.; Becker,U.; Riplinger,C.
     The ORCA quantum chemistry program package
     J. Chem. Phys., 2020 152 Art. No. L224108
     doi.org/10.1063/5.0004608

List of optional additional citations

  1. Neese,F.
     Approximate second-order SCF convergence for spin unrestricted wavefunctions
     Chem. Phys. Lett., 2000 325(1-3)93-98
     doi.org/10.1016/s0009-2614(00)00662-x

Timings for individual modules:

Sum of individual times          ...   160703.287 sec (=2678.388 min)
Startup calculation              ...     2820.435 sec (=  47.007 min)   1.8 %
SCF iterations                   ...    44728.738 sec (= 745.479 min)  27.8 %
Property integrals               ...     1384.948 sec (=  23.082 min)   0.9 %
Property calculations            ...       63.086 sec (=   1.051 min)   0.0 %
CIS module                       ...    80013.355 sec (=1333.556 min)  49.8 %
Geometry relaxation              ...        2.678 sec (=   0.045 min)   0.0 %
Numerical frequency calculation  ...    31690.048 sec (= 528.167 min)  19.7 %
                             ****ORCA TERMINATED NORMALLY****
TOTAL RUN TIME: 1 days 19 hours 57 minutes 10 seconds 102 msec
