
                                 *****************
                                 * O   R   C   A *
                                 *****************

                                            #,                                       
                                            ###                                      
                                            ####                                     
                                            #####                                    
                                            ######                                   
                                           ########,                                 
                                     ,,################,,,,,                         
                               ,,#################################,,                 
                          ,,##########################################,,             
                       ,#########################################, ''#####,          
                    ,#############################################,,   '####,        
                  ,##################################################,,,,####,       
                ,###########''''           ''''###############################       
              ,#####''   ,,,,##########,,,,          '''####'''          '####       
            ,##' ,,,,###########################,,,                        '##       
           ' ,,###''''                  '''############,,,                           
         ,,##''                                '''############,,,,        ,,,,,,###''
      ,#''                                            '''#######################'''  
     '                                                          ''''####''''         
             ,#######,   #######,   ,#######,      ##                                
            ,#'     '#,  ##    ##  ,#'     '#,    #''#        ######   ,####,        
            ##       ##  ##   ,#'  ##            #'  '#       #        #'  '#        
            ##       ##  #######   ##           ,######,      #####,   #    #        
            '#,     ,#'  ##    ##  '#,     ,#' ,#      #,         ##   #,  ,#        
             '#######'   ##     ##  '#######'  #'      '#     #####' # '####'        



                  #######################################################
                  #                        -***-                        #
                  #          Department of theory and spectroscopy      #
                  #    Directorship and core code : Frank Neese         #
                  #        Max Planck Institute fuer Kohlenforschung    #
                  #                Kaiser Wilhelm Platz 1               #
                  #                 D-45470 Muelheim/Ruhr               #
                  #                      Germany                        #
                  #                                                     #
                  #                  All rights reserved                #
                  #                        -***-                        #
                  #######################################################


                         Program Version 5.0.4 -  RELEASE  -


 With contributions from (in alphabetic order):
   Daniel Aravena         : Magnetic Suceptibility
   Michael Atanasov       : Ab Initio Ligand Field Theory (pilot matlab implementation)
   Alexander A. Auer      : GIAO ZORA, VPT2 properties, NMR spectrum
   Ute Becker             : Parallelization
   Giovanni Bistoni       : ED, misc. LED, open-shell LED, HFLD
   Martin Brehm           : Molecular dynamics
   Dmytro Bykov           : SCF Hessian
   Vijay G. Chilkuri      : MRCI spin determinant printing, contributions to CSF-ICE
   Dipayan Datta          : RHF DLPNO-CCSD density
   Achintya Kumar Dutta   : EOM-CC, STEOM-CC
   Dmitry Ganyushin       : Spin-Orbit,Spin-Spin,Magnetic field MRCI
   Miquel Garcia          : C-PCM and meta-GGA Hessian, CC/C-PCM, Gaussian charge scheme
   Yang Guo               : DLPNO-NEVPT2, F12-NEVPT2, CIM, IAO-localization
   Andreas Hansen         : Spin unrestricted coupled pair/coupled cluster methods
   Benjamin Helmich-Paris : MC-RPA, TRAH-SCF, COSX integrals
   Lee Huntington         : MR-EOM, pCC
   Robert Izsak           : Overlap fitted RIJCOSX, COSX-SCS-MP3, EOM
   Marcus Kettner         : VPT2
   Christian Kollmar      : KDIIS, OOCD, Brueckner-CCSD(T), CCSD density, CASPT2, CASPT2-K
   Simone Kossmann        : Meta GGA functionals, TD-DFT gradient, OOMP2, MP2 Hessian
   Martin Krupicka        : Initial AUTO-CI
   Lucas Lang             : DCDCAS
   Marvin Lechner         : AUTO-CI (C++ implementation), FIC-MRCC
   Dagmar Lenk            : GEPOL surface, SMD
   Dimitrios Liakos       : Extrapolation schemes; Compound Job, initial MDCI parallelization
   Dimitrios Manganas     : Further ROCIS development; embedding schemes
   Dimitrios Pantazis     : SARC Basis sets
   Anastasios Papadopoulos: AUTO-CI, single reference methods and gradients
   Taras Petrenko         : DFT Hessian,TD-DFT gradient, ASA, ECA, R-Raman, ABS, FL, XAS/XES, NRVS
   Peter Pinski           : DLPNO-MP2, DLPNO-MP2 Gradient
   Christoph Reimann      : Effective Core Potentials
   Marius Retegan         : Local ZFS, SOC
   Christoph Riplinger    : Optimizer, TS searches, QM/MM, DLPNO-CCSD(T), (RO)-DLPNO pert. Triples
   Tobias Risthaus        : Range-separated hybrids, TD-DFT gradient, RPA, STAB
   Michael Roemelt        : Original ROCIS implementation
   Masaaki Saitow         : Open-shell DLPNO-CCSD energy and density
   Barbara Sandhoefer     : DKH picture change effects
   Avijit Sen             : IP-ROCIS
   Kantharuban Sivalingam : CASSCF convergence, NEVPT2, FIC-MRCI
   Bernardo de Souza      : ESD, SOC TD-DFT
   Georgi Stoychev        : AutoAux, RI-MP2 NMR, DLPNO-MP2 response
   Willem Van den Heuvel  : Paramagnetic NMR
   Boris Wezisla          : Elementary symmetry handling
   Frank Wennmohs         : Technical directorship


 We gratefully acknowledge several colleagues who have allowed us to
 interface, adapt or use parts of their codes:
   Stefan Grimme, W. Hujo, H. Kruse, P. Pracht,  : VdW corrections, initial TS optimization,
                  C. Bannwarth, S. Ehlert          DFT functionals, gCP, sTDA/sTD-DF
   Ed Valeev, F. Pavosevic, A. Kumar             : LibInt (2-el integral package), F12 methods
   Garnet Chan, S. Sharma, J. Yang, R. Olivares  : DMRG
   Ulf Ekstrom                                   : XCFun DFT Library
   Mihaly Kallay                                 : mrcc  (arbitrary order and MRCC methods)
   Jiri Pittner, Ondrej Demel                    : Mk-CCSD
   Frank Weinhold                                : gennbo (NPA and NBO analysis)
   Christopher J. Cramer and Donald G. Truhlar   : smd solvation model
   Lars Goerigk                                  : TD-DFT with DH, B97 family of functionals
   V. Asgeirsson, H. Jonsson                     : NEB implementation
   FAccTs GmbH                                   : IRC, NEB, NEB-TS, DLPNO-Multilevel, CI-OPT
                                                   MM, QMMM, 2- and 3-layer-ONIOM, Crystal-QMMM,
                                                   LR-CPCM, SF, NACMEs, symmetry and pop. for TD-DFT,
                                                   nearIR, NL-DFT gradient (VV10), updates on ESD,
                                                   ML-optimized integration grids
   S Lehtola, MJT Oliveira, MAL Marques          : LibXC Library
   Liviu Ungur et al                             : ANISO software


 Your calculation uses the libint2 library for the computation of 2-el integrals
 For citations please refer to: http://libint.valeyev.net

 Your ORCA version has been built with support for libXC version: 5.1.0
 For citations please refer to: https://tddft.org/programs/libxc/

 This ORCA versions uses:
   CBLAS   interface :  Fast vector & matrix operations
   LAPACKE interface :  Fast linear algebra routines
   SCALAPACK package :  Parallel linear algebra routines
   Shared memory     :  Shared parallel matrices
   BLAS/LAPACK       :  OpenBLAS 0.3.15  USE64BITINT DYNAMIC_ARCH NO_AFFINITY Zen SINGLE_THREADED
        Core in use  :  Zen
   Copyright (c) 2011-2014, The OpenBLAS Project


================================================================================

----- Orbital basis set information -----
Your calculation utilizes the basis: def2-TZVP(-f)
   F. Weigend and R. Ahlrichs, Phys. Chem. Chem. Phys. 7, 3297 (2005).

----- AuxJ basis set information -----
Your calculation utilizes the auxiliary basis: def2/J
   F. Weigend, Phys. Chem. Chem. Phys. 8, 1057 (2006).

----- AuxC basis set information -----
Your calculation utilizes the auxiliary basis: def2-TZVP/C
  H-La, Hf-Rn : A. Hellweg, C. Hattig, S. Hofener and W. Klopper, Theor. Chem. Acc. 117, 587 (2007).
        Ce-Lu : J. Chmela and M. E. Harding, Mol. Phys. (2018).

================================================================================
                                        WARNINGS
                       Please study these warnings very carefully!
================================================================================

INFO   : Checking CIS options ...

WARNING: Analytical Frequencies for this method not available!
  ===> : Switching to Numerical Frequencies!

WARNING: CIS/ROCIS methods need fully converged wavefunctions
  ===> : Setting SCFConvForced true
         You can overwrite this default with %scf ConvForced false 


INFO   : the flag for use of the SHARK integral package has been found!

================================================================================
                                       INPUT FILE
================================================================================
NAME = NMU-H_ES.inp
|  1> ! B3LYP/G FREQ Def2-TZVP(-f) Def2-TZVP/C Def2/J RIJCOSX TightSCF CPCM(Water) AllPop SOSCF
|  2> %maxcore 3000
|  3> %tddft
|  4>     NRoots 3
|  5>     IRoot 1
|  6> end
|  7> 
|  8> * xyz 1 1
|  9>   C   -6.61768987981473     -1.50488354359515      0.05146485214456
| 10>   C   -6.64066271383959     -2.71893591446409     -0.85441671878089
| 11>   C   -5.61979009653114     -3.73435054822502     -0.36344531710655
| 12>   H   -6.41554775819446     -2.41771239323737     -1.88010709458057
| 13>   H   -7.64535145595529     -3.14056725309749     -0.84484599935711
| 14>   C   -4.26610565528973     -3.10066166365401     -0.22847880075843
| 15>   H   -5.55480951943940     -4.59475990409410     -1.02891410783046
| 16>   H   -5.92887191869556     -4.11252311919706      0.61784044115340
| 17>   C   -4.15417472510938     -1.68849278876247      0.07637446288821
| 18>   N   -5.26370701600544     -0.94745237214609      0.20965905892610
| 19>   H   -6.98700750717321     -1.75467640971849      1.05173539183706
| 20>   H   -7.24183167717099     -0.70449854402745     -0.34045625739536
| 21>   C   -5.20853876530423      0.45725677387580      0.64676960315112
| 22>   C   -3.96437810737637      1.15199934474615      0.13182664932400
| 23>   H   -5.23773938285154      0.46365315672789      1.74114549363460
| 24>   H   -6.11279928546248      0.93978249807965      0.28535462192171
| 25>   C   -2.72564937879723      0.38232588676584      0.56617390797749
| 26>   H   -3.94158877125380      2.16811267185988      0.52422337208994
| 27>   H   -4.00923989967831      1.21709526370442     -0.95750007825442
| 28>   C   -2.86526548627591     -1.08050455504116      0.25511275904095
| 29>   H   -2.57327724805203      0.49966484916317      1.64493248956937
| 30>   H   -1.83252350773553      0.77585116297488      0.08312826034982
| 31>   C   -3.12380399992908     -3.83443678634261     -0.35757536731427
| 32>   C   -1.76103990569442     -1.89038616580578      0.13501215659944
| 33>   C   -1.84743381716399     -3.26207060560551     -0.17892895816185
| 34>   O   -0.53924528665630     -1.31151415213380      0.32759897384209
| 35>   C   0.64782981308678     -2.00495677795358      0.22028093499394
| 36>   C   -0.64498752654275     -4.00638463998752     -0.30282260521545
| 37>   C   0.56994122099214     -3.42780269580914     -0.12194280539848
| 38>   O   1.66370625506757     -1.37967131432308      0.41200911291378
| 39>   C   1.83772901635591     -4.19170718802229     -0.24402414274054
| 40>   C   2.48612570104205     -4.68246965418724      0.92118599249456
| 41>   C   2.35719627922592     -4.42624040109817     -1.48153460786617
| 42>   N   3.53960803986748     -5.13834942315829     -1.61552168562437
| 43>   C   4.20045449662056     -5.63296531084373     -0.49631162686690
| 44>   C   3.68981325544751     -5.41363991614956      0.74269268014493
| 45>   H   1.90326269690252     -4.07603182759001     -2.39459214788062
| 46>   H   4.22052312949949     -5.80772723907516      1.59833676649823
| 47>   H   5.10988540409974     -6.17938461700244     -0.68624307951565
| 48>   H   2.07489511204649     -4.50628421162679      1.90145367095340
| 49>   H   -3.18751577805849     -4.88917477196997     -0.59292834200479
| 50>   H   -0.71043304046035     -5.05924053411585     -0.54789317460536
| 51>   H   3.90620869025757     -5.31966436583722     -2.53291873519047
| 52> *
| 53> 
| 54> 
| 55>                          ****END OF INPUT****
================================================================================

                       ****************************
                       * Single Point Calculation *
                       ****************************

---------------------------------
CARTESIAN COORDINATES (ANGSTROEM)
---------------------------------
  C     -6.617690   -1.504884    0.051465
  C     -6.640663   -2.718936   -0.854417
  C     -5.619790   -3.734351   -0.363445
  H     -6.415548   -2.417712   -1.880107
  H     -7.645351   -3.140567   -0.844846
  C     -4.266106   -3.100662   -0.228479
  H     -5.554810   -4.594760   -1.028914
  H     -5.928872   -4.112523    0.617840
  C     -4.154175   -1.688493    0.076374
  N     -5.263707   -0.947452    0.209659
  H     -6.987008   -1.754676    1.051735
  H     -7.241832   -0.704499   -0.340456
  C     -5.208539    0.457257    0.646770
  C     -3.964378    1.151999    0.131827
  H     -5.237739    0.463653    1.741145
  H     -6.112799    0.939782    0.285355
  C     -2.725649    0.382326    0.566174
  H     -3.941589    2.168113    0.524223
  H     -4.009240    1.217095   -0.957500
  C     -2.865265   -1.080505    0.255113
  H     -2.573277    0.499665    1.644932
  H     -1.832524    0.775851    0.083128
  C     -3.123804   -3.834437   -0.357575
  C     -1.761040   -1.890386    0.135012
  C     -1.847434   -3.262071   -0.178929
  O     -0.539245   -1.311514    0.327599
  C      0.647830   -2.004957    0.220281
  C     -0.644988   -4.006385   -0.302823
  C      0.569941   -3.427803   -0.121943
  O      1.663706   -1.379671    0.412009
  C      1.837729   -4.191707   -0.244024
  C      2.486126   -4.682470    0.921186
  C      2.357196   -4.426240   -1.481535
  N      3.539608   -5.138349   -1.615522
  C      4.200454   -5.632965   -0.496312
  C      3.689813   -5.413640    0.742693
  H      1.903263   -4.076032   -2.394592
  H      4.220523   -5.807727    1.598337
  H      5.109885   -6.179385   -0.686243
  H      2.074895   -4.506284    1.901454
  H     -3.187516   -4.889175   -0.592928
  H     -0.710433   -5.059241   -0.547893
  H      3.906209   -5.319664   -2.532919

----------------------------
CARTESIAN COORDINATES (A.U.)
----------------------------
  NO LB      ZA    FRAG     MASS         X           Y           Z
   0 C     6.0000    0    12.011  -12.505622   -2.843818    0.097254
   1 C     6.0000    0    12.011  -12.549034   -5.138044   -1.614614
   2 C     6.0000    0    12.011  -10.619864   -7.056900   -0.686812
   3 H     1.0000    0     1.008  -12.123628   -4.568814   -3.552888
   4 H     1.0000    0     1.008  -14.447620   -5.934812   -1.596528
   5 C     6.0000    0    12.011   -8.061771   -5.859401   -0.431762
   6 H     1.0000    0     1.008  -10.497069   -8.682838   -1.944366
   7 H     1.0000    0     1.008  -11.203944   -7.771542    1.167549
   8 C     6.0000    0    12.011   -7.850253   -3.190789    0.144327
   9 N     7.0000    0    14.007   -9.946965   -1.790426    0.396198
  10 H     1.0000    0     1.008  -13.203531   -3.315858    1.987492
  11 H     1.0000    0     1.008  -13.685079   -1.331309   -0.643369
  12 C     6.0000    0    12.011   -9.842712    0.864090    1.222217
  13 C     6.0000    0    12.011   -7.491589    2.176963    0.249116
  14 H     1.0000    0     1.008   -9.897893    0.876177    3.290288
  15 H     1.0000    0     1.008  -11.551517    1.775932    0.539242
  16 C     6.0000    0    12.011   -5.150731    0.722491    1.069914
  17 H     1.0000    0     1.008   -7.448523    4.097139    0.990639
  18 H     1.0000    0     1.008   -7.576365    2.299977   -1.809413
  19 C     6.0000    0    12.011   -5.414567   -2.041858    0.482093
  20 H     1.0000    0     1.008   -4.862789    0.944230    3.108472
  21 H     1.0000    0     1.008   -3.462968    1.466146    0.157090
  22 C     6.0000    0    12.011   -5.903134   -7.246035   -0.675720
  23 C     6.0000    0    12.011   -3.327883   -3.572312    0.255136
  24 C     6.0000    0    12.011   -3.491144   -6.164420   -0.338127
  25 O     8.0000    0    15.999   -1.019026   -2.478403    0.619072
  26 C     6.0000    0    12.011    1.224221   -3.788819    0.416271
  27 C     6.0000    0    12.011   -1.218850   -7.570970   -0.572252
  28 C     6.0000    0    12.011    1.077033   -6.477608   -0.230439
  29 O     8.0000    0    15.999    3.143949   -2.607201    0.778584
  30 C     6.0000    0    12.011    3.472805   -7.921179   -0.461139
  31 C     6.0000    0    12.011    4.698097   -8.848585    1.740789
  32 C     6.0000    0    12.011    4.454455   -8.364382   -2.799695
  33 N     7.0000    0    14.007    6.688890   -9.710073   -3.052894
  34 C     6.0000    0    12.011    7.937709  -10.644762   -0.937893
  35 C     6.0000    0    12.011    6.972737  -10.230297    1.403486
  36 H     1.0000    0     1.008    3.596645   -7.702584   -4.525123
  37 H     1.0000    0     1.008    7.975633  -10.975014    3.020419
  38 H     1.0000    0     1.008    9.656284  -11.677345   -1.296811
  39 H     1.0000    0     1.008    3.920984   -8.515643    3.593227
  40 H     1.0000    0     1.008   -6.023532   -9.239201   -1.120472
  41 H     1.0000    0     1.008   -1.342524   -9.560579   -1.035368
  42 H     1.0000    0     1.008    7.381665  -10.052709   -4.786523

--------------------------------
INTERNAL COORDINATES (ANGSTROEM)
--------------------------------
 C      0   0   0     0.000000000000     0.00000000     0.00000000
 C      1   0   0     1.514949613307     0.00000000     0.00000000
 C      2   1   0     1.521282582720   109.37447872     0.00000000
 H      2   1   3     1.092452790744   109.71415822   238.75234855
 H      2   1   3     1.089616470563   108.59203560   121.21651598
 C      3   2   1     1.500746190874   110.63946602   306.31039043
 H      3   2   1     1.089667585318   111.71326751   183.98114591
 H      3   2   1     1.096114868794   109.26793419    65.87200950
 C      6   3   2     1.449028977177   120.00692162    29.25268763
 N      9   6   3     1.340883137019   119.70848486   358.63756065
 H      1   2   3     1.095140693436   110.99328958   292.67745268
 H      1   2   3     1.088012539837   111.43421247   172.69685883
 C     10   9   6     1.472181017632   121.72396603   173.94337349
 C     13  10   9     1.515179602625   111.55351071    34.36789856
 H     13  10   9     1.094784078917   107.54039896   272.38918242
 H     13  10   9     1.086802167596   107.08081682   156.62623158
 C     14  13  10     1.521677901537   109.84726429   304.22911482
 H     14  13  10     1.089486500796   108.80891140   183.01899335
 H     14  13  10     1.092191731561   109.42453579    65.55478083
 C      9   6   3     1.436274380752   120.53353412   177.77070042
 H     17  14  13     1.095767208709   109.87955129   288.91550481
 H     17  14  13     1.088976153213   110.99274265   171.38910835
 C      6   3   2     1.363797978446   121.31965165   207.76261375
 C     20   9   6     1.374644139758   117.42545297   359.54045691
 C     24  20   9     1.409801806590   122.91934125     1.35989427
 O     24  20   9     1.365637060679   117.16896065   181.04474132
 C     26  24  20     1.378958711926   123.09577265   180.83719670
 C     25  24  20     1.419588003396   118.53321430   178.92081080
 C     28  25  24     1.357765233646   121.52549496     0.22354342
 O     27  26  24     1.208199714703   116.82150962   179.88862805
 C     29  28  25     1.485173330027   122.25557225   179.83351112
 C     31  29  28     1.420908413010   119.98517232   261.86445831
 C     31  29  28     1.362455216337   119.25310918    81.11226804
 N     33  31  29     1.386776610709   120.08187662   180.03981335
 C     34  33  31     1.390681153744   120.66678917     0.70543247
 C     35  34  33     1.357935852218   119.87888914   359.69503946
 H     33  31  29     1.078135340992   123.55768007     0.73234854
 H     36  35  34     1.081242151887   118.59413769   179.98898464
 H     35  34  33     1.077827718296   116.06839458   179.71072387
 H     32  31  29     1.077532657940   121.02401684   359.73174276
 H     23   6   3     1.082553662270   119.70259979     1.95571209
 H     28  25  24     1.082981178541   118.57405529   180.24266558
 H     34  33  31     1.004434413915   119.48103247   178.95394214

---------------------------
INTERNAL COORDINATES (A.U.)
---------------------------
 C      0   0   0     0.000000000000     0.00000000     0.00000000
 C      1   0   0     2.862839875839     0.00000000     0.00000000
 C      2   1   0     2.874807453646   109.37447872     0.00000000
 H      2   1   3     2.064436588743   109.71415822   238.75234855
 H      2   1   3     2.059076720374   108.59203560   121.21651598
 C      3   2   1     2.835999297278   110.63946602   306.31039043
 H      3   2   1     2.059173313263   111.71326751   183.98114591
 H      3   2   1     2.071356913340   109.26793419    65.87200950
 C      6   3   2     2.738267926981   120.00692162    29.25268763
 N      9   6   3     2.533901906558   119.70848486   358.63756065
 H      1   2   3     2.069515988708   110.99328958   292.67745268
 H      1   2   3     2.056045730564   111.43421247   172.69685883
 C     10   9   6     2.782018942882   121.72396603   173.94337349
 C     13  10   9     2.863274492665   111.55351071    34.36789856
 H     13  10   9     2.068842084930   107.54039896   272.38918242
 H     13  10   9     2.053758458509   107.08081682   156.62623158
 C     14  13  10     2.875554497945   109.84726429   304.22911482
 H     14  13  10     2.058831113108   108.80891140   183.01899335
 H     14  13  10     2.063943258384   109.42453579    65.55478083
 C      9   6   3     2.714165232789   120.53353412   177.77070042
 H     17  14  13     2.070699930992   109.87955129   288.91550481
 H     17  14  13     2.057866695944   110.99274265   171.38910835
 C      6   3   2     2.577204681258   121.31965165   207.76261375
 C     20   9   6     2.597700955743   117.42545297   359.54045691
 C     24  20   9     2.664139317563   122.91934125     1.35989427
 O     24  20   9     2.580680043016   117.16896065   181.04474132
 C     26  24  20     2.605854315525   123.09577265   180.83719670
 C     25  24  20     2.682632549419   118.53321430   178.92081080
 C     28  25  24     2.565804445751   121.52549496     0.22354342
 O     27  26  24     2.283166575870   116.82150962   179.88862805
 C     29  28  25     2.806570855155   122.25557225   179.83351112
 C     31  29  28     2.685127761974   119.98517232   261.86445831
 C     31  29  28     2.574667228610   119.25310918    81.11226804
 N     33  31  29     2.620628003167   120.08187662   180.03981335
 C     34  33  31     2.628006520181   120.66678917     0.70543247
 C     35  34  33     2.566126868125   119.87888914   359.69503946
 H     33  31  29     2.037380529777   123.55768007     0.73234854
 H     36  35  34     2.043251551519   118.59413769   179.98898464
 H     35  34  33     2.036799207128   116.06839458   179.71072387
 H     32  31  29     2.036241623863   121.02401684   359.73174276
 H     23   6   3     2.045729946963   119.70259979     1.95571209
 H     28  25  24     2.046537835634   118.57405529   180.24266558
 H     34  33  31     1.898105961786   119.48103247   178.95394214

---------------------
BASIS SET INFORMATION
---------------------
There are 4 groups of distinct atoms

 Group   1 Type C   : 11s6p2d contracted to 5s3p2d pattern {62111/411/11}
 Group   2 Type H   : 5s1p contracted to 3s1p pattern {311/1}
 Group   3 Type N   : 11s6p2d contracted to 5s3p2d pattern {62111/411/11}
 Group   4 Type O   : 11s6p2d contracted to 5s3p2d pattern {62111/411/11}

Atom   0C    basis set group =>   1
Atom   1C    basis set group =>   1
Atom   2C    basis set group =>   1
Atom   3H    basis set group =>   2
Atom   4H    basis set group =>   2
Atom   5C    basis set group =>   1
Atom   6H    basis set group =>   2
Atom   7H    basis set group =>   2
Atom   8C    basis set group =>   1
Atom   9N    basis set group =>   3
Atom  10H    basis set group =>   2
Atom  11H    basis set group =>   2
Atom  12C    basis set group =>   1
Atom  13C    basis set group =>   1
Atom  14H    basis set group =>   2
Atom  15H    basis set group =>   2
Atom  16C    basis set group =>   1
Atom  17H    basis set group =>   2
Atom  18H    basis set group =>   2
Atom  19C    basis set group =>   1
Atom  20H    basis set group =>   2
Atom  21H    basis set group =>   2
Atom  22C    basis set group =>   1
Atom  23C    basis set group =>   1
Atom  24C    basis set group =>   1
Atom  25O    basis set group =>   4
Atom  26C    basis set group =>   1
Atom  27C    basis set group =>   1
Atom  28C    basis set group =>   1
Atom  29O    basis set group =>   4
Atom  30C    basis set group =>   1
Atom  31C    basis set group =>   1
Atom  32C    basis set group =>   1
Atom  33N    basis set group =>   3
Atom  34C    basis set group =>   1
Atom  35C    basis set group =>   1
Atom  36H    basis set group =>   2
Atom  37H    basis set group =>   2
Atom  38H    basis set group =>   2
Atom  39H    basis set group =>   2
Atom  40H    basis set group =>   2
Atom  41H    basis set group =>   2
Atom  42H    basis set group =>   2
---------------------------------
AUXILIARY/J BASIS SET INFORMATION
---------------------------------
There are 4 groups of distinct atoms

 Group   1 Type C   : 12s5p4d2f1g contracted to 6s4p3d1f1g pattern {711111/2111/211/2/1}
 Group   2 Type H   : 5s2p1d contracted to 3s1p1d pattern {311/2/1}
 Group   3 Type N   : 12s5p4d2f1g contracted to 6s4p3d1f1g pattern {711111/2111/211/2/1}
 Group   4 Type O   : 12s5p4d2f1g contracted to 6s4p3d1f1g pattern {711111/2111/211/2/1}

Atom   0C    basis set group =>   1
Atom   1C    basis set group =>   1
Atom   2C    basis set group =>   1
Atom   3H    basis set group =>   2
Atom   4H    basis set group =>   2
Atom   5C    basis set group =>   1
Atom   6H    basis set group =>   2
Atom   7H    basis set group =>   2
Atom   8C    basis set group =>   1
Atom   9N    basis set group =>   3
Atom  10H    basis set group =>   2
Atom  11H    basis set group =>   2
Atom  12C    basis set group =>   1
Atom  13C    basis set group =>   1
Atom  14H    basis set group =>   2
Atom  15H    basis set group =>   2
Atom  16C    basis set group =>   1
Atom  17H    basis set group =>   2
Atom  18H    basis set group =>   2
Atom  19C    basis set group =>   1
Atom  20H    basis set group =>   2
Atom  21H    basis set group =>   2
Atom  22C    basis set group =>   1
Atom  23C    basis set group =>   1
Atom  24C    basis set group =>   1
Atom  25O    basis set group =>   4
Atom  26C    basis set group =>   1
Atom  27C    basis set group =>   1
Atom  28C    basis set group =>   1
Atom  29O    basis set group =>   4
Atom  30C    basis set group =>   1
Atom  31C    basis set group =>   1
Atom  32C    basis set group =>   1
Atom  33N    basis set group =>   3
Atom  34C    basis set group =>   1
Atom  35C    basis set group =>   1
Atom  36H    basis set group =>   2
Atom  37H    basis set group =>   2
Atom  38H    basis set group =>   2
Atom  39H    basis set group =>   2
Atom  40H    basis set group =>   2
Atom  41H    basis set group =>   2
Atom  42H    basis set group =>   2
---------------------------------
AUXILIARY/C BASIS SET INFORMATION
---------------------------------
There are 4 groups of distinct atoms

 Group   1 Type C   : 8s6p5d3f1g contracted to 8s6p4d3f1g pattern {11111111/111111/2111/111/1}
 Group   2 Type H   : 4s3p2d contracted to 4s2p1d pattern {1111/21/2}
 Group   3 Type N   : 8s6p5d3f1g contracted to 8s6p4d3f1g pattern {11111111/111111/2111/111/1}
 Group   4 Type O   : 8s6p5d3f1g contracted to 8s6p4d3f1g pattern {11111111/111111/2111/111/1}

Atom   0C    basis set group =>   1
Atom   1C    basis set group =>   1
Atom   2C    basis set group =>   1
Atom   3H    basis set group =>   2
Atom   4H    basis set group =>   2
Atom   5C    basis set group =>   1
Atom   6H    basis set group =>   2
Atom   7H    basis set group =>   2
Atom   8C    basis set group =>   1
Atom   9N    basis set group =>   3
Atom  10H    basis set group =>   2
Atom  11H    basis set group =>   2
Atom  12C    basis set group =>   1
Atom  13C    basis set group =>   1
Atom  14H    basis set group =>   2
Atom  15H    basis set group =>   2
Atom  16C    basis set group =>   1
Atom  17H    basis set group =>   2
Atom  18H    basis set group =>   2
Atom  19C    basis set group =>   1
Atom  20H    basis set group =>   2
Atom  21H    basis set group =>   2
Atom  22C    basis set group =>   1
Atom  23C    basis set group =>   1
Atom  24C    basis set group =>   1
Atom  25O    basis set group =>   4
Atom  26C    basis set group =>   1
Atom  27C    basis set group =>   1
Atom  28C    basis set group =>   1
Atom  29O    basis set group =>   4
Atom  30C    basis set group =>   1
Atom  31C    basis set group =>   1
Atom  32C    basis set group =>   1
Atom  33N    basis set group =>   3
Atom  34C    basis set group =>   1
Atom  35C    basis set group =>   1
Atom  36H    basis set group =>   2
Atom  37H    basis set group =>   2
Atom  38H    basis set group =>   2
Atom  39H    basis set group =>   2
Atom  40H    basis set group =>   2
Atom  41H    basis set group =>   2
Atom  42H    basis set group =>   2
------------------------------------------------------------------------------
                           ORCA GTO INTEGRAL CALCULATION
                           -- RI-GTO INTEGRALS CHOSEN --
------------------------------------------------------------------------------
------------------------------------------------------------------------------
                   ___                                                        
                  /   \      - P O W E R E D   B Y -                         
                 /     \                                                     
                 |  |  |   _    _      __       _____    __    __             
                 |  |  |  | |  | |    /  \     |  _  \  |  |  /  |          
                  \  \/   | |  | |   /    \    | | | |  |  | /  /          
                 / \  \   | |__| |  /  /\  \   | |_| |  |  |/  /          
                |  |  |   |  __  | /  /__\  \  |    /   |      \           
                |  |  |   | |  | | |   __   |  |    \   |  |\   \          
                \     /   | |  | | |  |  |  |  | |\  \  |  | \   \       
                 \___/    |_|  |_| |__|  |__|  |_| \__\ |__|  \__/        
                                                                              
                      - O R C A' S   B I G   F R I E N D -                    
                                      &                                       
                       - I N T E G R A L  F E E D E R -                       
                                                                              
 v1 FN, 2020, v2 2021                                                         
------------------------------------------------------------------------------


Reading SHARK input file NMU-H_ES.SHARKINP.tmp ... ok
----------------------
SHARK INTEGRAL PACKAGE
----------------------

Number of atoms                             ...     43
Number of basis functions                   ...    690
Number of shells                            ...    316
Maximum angular momentum                    ...      2
Integral batch strategy                     ... SHARK/LIBINT Hybrid
RI-J (if used) integral strategy            ... SPLIT-RIJ (Revised 2003 algorithm where possible)
Printlevel                                  ...      1
Contraction scheme used                     ... SEGMENTED contraction
Coulomb Range Separation                    ... NOT USED
Exchange Range Separation                   ... NOT USED
Finite Nucleus Model                        ... NOT USED
Auxiliary Coulomb fitting basis             ... AVAILABLE
   # of basis functions in Aux-J            ...   1385
   # of shells in Aux-J                     ...    455
   Maximum angular momentum in Aux-J        ...      4
Auxiliary J/K fitting basis                 ... NOT available
Auxiliary Correlation fitting basis         ... AVAILABLE
   # of basis functions in Aux-C            ...   2109
   # of shells in Aux-C                     ...    661
   Maximum angular momentum in Aux-C        ...      4
Auxiliary 'external' fitting basis          ... NOT available
Integral threshold                          ...     2.500000e-11
Primitive cut-off                           ...     2.500000e-12
Primitive pair pre-selection threshold      ...     2.500000e-12

Calculating pre-screening integrals         ... done (  0.1 sec) Dimension = 316
Organizing shell pair data                  ... done (  0.4 sec)
Shell pair information
Total number of shell pairs                 ...     50086
Shell pairs after pre-screening             ...     33020
Total number of primitive shell pairs       ...    163320
Primitive shell pairs kept                  ...     70793
          la=0 lb=0:   9797 shell pairs
          la=1 lb=0:  10968 shell pairs
          la=1 lb=1:   3073 shell pairs
          la=2 lb=0:   5392 shell pairs
          la=2 lb=1:   3030 shell pairs
          la=2 lb=2:    760 shell pairs

Calculating one electron integrals          ... done (  0.1 sec)
Calculating RI/J V-Matrix + Cholesky decomp.... done (  0.3 sec)
Calculating RI/C V-Matrix + Cholesky decomp.... done (  0.7 sec)
Calculating Nuclear repulsion               ... done (  0.0 sec) ENN=   1959.822389255525 Eh

SHARK setup successfully completed in   2.4 seconds

Maximum memory used throughout the entire GTOINT-calculation: 240.3 MB
-------------------------------------------------------------------------------
                                 ORCA SCF
-------------------------------------------------------------------------------

------------
SCF SETTINGS
------------
Hamiltonian:
 Density Functional     Method          .... DFT(GTOs)
 Exchange Functional    Exchange        .... B88
   X-Alpha parameter    XAlpha          ....  0.666667
   Becke's b parameter  XBeta           ....  0.004200
 Correlation Functional Correlation     .... LYP
 LDA part of GGA corr.  LDAOpt          .... VWN-3
 Gradients option       PostSCFGGA      .... off
 Hybrid DFT is turned on
   Fraction HF Exchange ScalHFX         ....  0.200000
   Scaling of DF-GGA-X  ScalDFX         ....  0.720000
   Scaling of DF-GGA-C  ScalDFC         ....  0.810000
   Scaling of DF-LDA-C  ScalLDAC        ....  1.000000
   Perturbative correction              ....  0.000000
   Density functional embedding theory  .... OFF
   NL short-range parameter             ....  4.800000
 RI-approximation to the Coulomb term is turned on
   Number of AuxJ basis functions       .... 1385
   RIJ-COSX (HFX calculated with COS-X)).... on


General Settings:
 Integral files         IntName         .... NMU-H_ES
 Hartree-Fock type      HFTyp           .... RHF
 Total Charge           Charge          ....    1
 Multiplicity           Mult            ....    1
 Number of Electrons    NEL             ....  168
 Basis Dimension        Dim             ....  690
 Nuclear Repulsion      ENuc            ....   1959.8223892555 Eh

Convergence Acceleration:
 DIIS                   CNVDIIS         .... on
   Start iteration      DIISMaxIt       ....    12
   Startup error        DIISStart       ....  0.200000
   # of expansion vecs  DIISMaxEq       ....     5
   Bias factor          DIISBfac        ....   1.050
   Max. coefficient     DIISMaxC        ....  10.000
 Trust-Rad. Augm. Hess. CNVTRAH         .... auto
   Auto Start mean grad. ratio tolernc. ....  1.125000
   Auto Start start iteration           ....    20
   Auto Start num. interpolation iter.  ....    10
   Max. Number of Micro iterations      ....    16
   Max. Number of Macro iterations      .... Maxiter - #DIIS iter
   Number of Davidson start vectors     ....     2
   Converg. threshold I  (grad. norm)   ....   1.000e-05
   Converg. threshold II (energy diff.) ....   1.000e-08
   Grad. Scal. Fac. for Micro threshold ....   0.100
   Minimum threshold for Micro iter.    ....   0.010
   NR start threshold (gradient norm)   ....   0.001
   Initial trust radius                 ....   0.400
   Minimum AH scaling param. (alpha)    ....   1.000
   Maximum AH scaling param. (alpha)    .... 1000.000
   Orbital update algorithm             .... Taylor
   White noise on init. David. guess    .... on
   Maximum white noise                  ....   0.010
   Quad. conv. algorithm                .... NR
 SOSCF                  CNVSOSCF        .... on
   Start iteration      SOSCFMaxIt      ....   150
   Startup grad/error   SOSCFStart      ....  0.003300
 Level Shifting         CNVShift        .... on
   Level shift para.    LevelShift      ....    0.2500
   Turn off err/grad.   ShiftErr        ....    0.0010
 Zerner damping         CNVZerner       .... off
 Static damping         CNVDamp         .... on
   Fraction old density DampFac         ....    0.7000
   Max. Damping (<1)    DampMax         ....    0.9800
   Min. Damping (>=0)   DampMin         ....    0.0000
   Turn off err/grad.   DampErr         ....    0.1000
 Fernandez-Rico         CNVRico         .... off

SCF Procedure:
 Maximum # iterations   MaxIter         ....   125
 SCF integral mode      SCFMode         .... Direct
   Integral package                     .... SHARK and LIBINT hybrid scheme
 Reset frequency        DirectResetFreq ....    20
 Integral Threshold     Thresh          ....  2.500e-11 Eh
 Primitive CutOff       TCut            ....  2.500e-12 Eh

Convergence Tolerance:
 Convergence Check Mode ConvCheckMode   .... Total+1el-Energy
 Convergence forced     ConvForced      .... 1
 Energy Change          TolE            ....  1.000e-08 Eh
 1-El. energy change                    ....  1.000e-05 Eh
 Orbital Gradient       TolG            ....  1.000e-05
 Orbital Rotation angle TolX            ....  1.000e-05
 DIIS Error             TolErr          ....  5.000e-07


Diagonalization of the overlap matrix:
Smallest eigenvalue                        ... 3.619e-06
Time for diagonalization                   ...    0.041 sec
Threshold for overlap eigenvalues          ... 1.000e-08
Number of eigenvalues below threshold      ... 0
Time for construction of square roots      ...    0.057 sec
Total time needed                          ...    0.099 sec

Time for model grid setup =    0.884 sec

------------------------------
INITIAL GUESS: MODEL POTENTIAL
------------------------------
Loading Hartree-Fock densities                     ... done
Calculating cut-offs                               ... done
Initializing the effective Hamiltonian             ... done
Setting up the integral package (SHARK)            ... done
Starting the Coulomb interaction                   ... done (   1.4 sec)
Reading the grid                                   ... done
Mapping shells                                     ... done
Starting the XC term evaluation                    ... done (   1.1 sec)
  promolecular density results
     # of electrons  =    169.000609464
     EX              =   -138.212672618
     EC              =     -5.765644982
     EX+EC           =   -143.978317600
Transforming the Hamiltonian                       ... done (   0.0 sec)
Diagonalizing the Hamiltonian                      ... done (   0.0 sec)
Back transforming the eigenvectors                 ... done (   0.0 sec)
Now organizing SCF variables                       ... done
                      ------------------
                      INITIAL GUESS DONE (   3.4 sec)
                      ------------------
-------------------
DFT GRID GENERATION
-------------------

General Integration Accuracy     IntAcc      ... 4.388
Radial Grid Type                 RadialGrid  ... OptM3 with GC (2021)
Angular Grid (max. ang.)         AngularGrid ... 4 (Lebedev-302)
Angular grid pruning method      GridPruning ... 4 (adaptive)
Weight generation scheme         WeightScheme... Becke
Basis function cutoff            BFCut       ... 1.0000e-11
Integration weight cutoff        WCut        ... 1.0000e-14
Angular grids for H and He will be reduced by one unit
Partially contracted basis set               ... off
Rotationally invariant grid construction     ... off

Total number of grid points                  ...   203389
Total number of batches                      ...     3197
Average number of points per batch           ...       63
Average number of grid points per atom       ...     4730
Time for grid setup =    2.924 sec

--------------------
COSX GRID GENERATION
--------------------

GRIDX 1
-------
General Integration Accuracy     IntAcc      ... 3.816
Radial Grid Type                 RadialGrid  ... OptM3 with GC (2021)
Angular Grid (max. ang.)         AngularGrid ... 1 (Lebedev-50)
Angular grid pruning method      GridPruning ... 4 (adaptive)
Weight generation scheme         WeightScheme... Becke
Basis function cutoff            BFCut       ... 1.0000e-11
Integration weight cutoff        WCut        ... 1.0000e-14
Angular grids for H and He will be reduced by one unit
Partially contracted basis set               ... on
Rotationally invariant grid construction     ... off

Total number of grid points                  ...    25876
Total number of batches                      ...      425
Average number of points per batch           ...       60
Average number of grid points per atom       ...      602
UseSFitting                                  ... on

GRIDX 2
-------
General Integration Accuracy     IntAcc      ... 4.020
Radial Grid Type                 RadialGrid  ... OptM3 with GC (2021)
Angular Grid (max. ang.)         AngularGrid ... 2 (Lebedev-110)
Angular grid pruning method      GridPruning ... 4 (adaptive)
Weight generation scheme         WeightScheme... Becke
Basis function cutoff            BFCut       ... 1.0000e-11
Integration weight cutoff        WCut        ... 1.0000e-14
Angular grids for H and He will be reduced by one unit
Partially contracted basis set               ... on
Rotationally invariant grid construction     ... off

Total number of grid points                  ...    55975
Total number of batches                      ...      899
Average number of points per batch           ...       62
Average number of grid points per atom       ...     1302
UseSFitting                                  ... on

GRIDX 3
-------
General Integration Accuracy     IntAcc      ... 4.338
Radial Grid Type                 RadialGrid  ... OptM3 with GC (2021)
Angular Grid (max. ang.)         AngularGrid ... 3 (Lebedev-194)
Angular grid pruning method      GridPruning ... 4 (adaptive)
Weight generation scheme         WeightScheme... Becke
Basis function cutoff            BFCut       ... 1.0000e-11
Integration weight cutoff        WCut        ... 1.0000e-14
Angular grids for H and He will be reduced by one unit
Partially contracted basis set               ... on
Rotationally invariant grid construction     ... off

Total number of grid points                  ...   122362
Total number of batches                      ...     1933
Average number of points per batch           ...       63
Average number of grid points per atom       ...     2846
UseSFitting                                  ... on

Time for X-Grid setup             =    4.530 sec


--------------------
CPCM SOLVATION MODEL
--------------------
CPCM parameters:
  Epsilon                                         ...      80.4000
  Refrac                                          ...       1.3300
  Rsolv                                           ...       1.3000
  Surface type                                    ... GAUSSIAN VDW
  Epsilon function type                           ...         CPCM
Radii:
 Radius for C  used is    3.8550 Bohr (=   2.0400 Ang.)
 Radius for H  used is    2.4944 Bohr (=   1.3200 Ang.)
 Radius for N  used is    3.5149 Bohr (=   1.8600 Ang.)
 Radius for O  used is    3.4469 Bohr (=   1.8240 Ang.)
Calculating surface                               ...        done! (  0.0s)
GEPOL surface points                              ...         2245
GEPOL Volume                                      ...    2465.9837
GEPOL Surface-area                                ...    1234.6522
Calculating surface distance matrix               ...        done! (  0.0s)
Performing Cholesky decomposition & store         ...        done! (  0.4s)
Overall time for CPCM initialization              ...                 0.5s
--------------
SCF ITERATIONS
--------------
ITER       Energy         Delta-E        Max-DP      RMS-DP      [F,P]     Damp
               ***  Starting incremental Fock matrix formation  ***
  0  -1033.2661721662   0.000000000000 0.12641528  0.00109481  0.3096670 0.7000
  1  -1033.4914531778  -0.225281011541 0.11885796  0.00085689  0.1192611 0.7000
                               ***Turning on DIIS***
  2  -1033.5849196147  -0.093466436946 0.12062496  0.00138015  0.0389405 0.0000
  3  -1033.7333054700  -0.148385855274 0.10773861  0.00065148  0.0502964 0.0000
  4  -1033.7627774208  -0.029471950773 0.01340659  0.00017478  0.0191084 0.0000
  5  -1033.7646603722  -0.001882951492 0.01582370  0.00009784  0.0117692 0.0000
                      *** Initiating the SOSCF procedure ***
                           *** Shutting down DIIS ***
                      *** Re-Reading the Fockian *** 
                      *** Removing any level shift *** 
ITER      Energy       Delta-E        Grad      Rot      Max-DP    RMS-DP
  6  -1033.76488052  -0.0002201471  0.000258  0.000258  0.002920  0.000034
               *** Restarting incremental Fock matrix formation ***
  7  -1033.76488794  -0.0000074233  0.000194  0.001174  0.001817  0.000029
  8  -1033.76488697   0.0000009729  0.000193  0.000414  0.000513  0.000008
  9  -1033.76489073  -0.0000037609  0.000032  0.000155  0.000458  0.000006
 10  -1033.76489065   0.0000000850  0.000028  0.000068  0.000234  0.000002
 11  -1033.76489082  -0.0000001729  0.000006  0.000028  0.000190  0.000002
 12  -1033.76489082   0.0000000025  0.000006  0.000009  0.000080  0.000001
                  ***Gradient check signals convergence***
              ***Rediagonalizing the Fockian in SOSCF/NRSCF***

               *****************************************************
               *                     SUCCESS                       *
               *           SCF CONVERGED AFTER  13 CYCLES          *
               *****************************************************

Old exchange energy                            =    -28.020586375 Eh
New exchange energy                            =    -28.020584316 Eh
Exchange energy change after final integration =      0.000002059 Eh
Total energy after final integration           =  -1033.764888756 Eh
Final COS-X integration done in                =    91.138 sec

----------------
TOTAL SCF ENERGY
----------------

Total Energy       :        -1033.76488876 Eh          -28130.17273 eV

Components:
Nuclear Repulsion  :         1959.82238926 Eh           53329.47843 eV
Electronic Energy  :        -2993.58727801 Eh          -81459.65116 eV
One Electron Energy:        -5277.21787086 Eh         -143600.39877 eV
Two Electron Energy:         2283.63059285 Eh           62140.74761 eV
Max COSX asymmetry :            0.00000236 Eh               0.00006 eV
CPCM Dielectric    :           -0.09625950 Eh              -2.61935 eV

Virial components:
Potential Energy   :        -2062.31807820 Eh          -56118.52792 eV
Kinetic Energy     :         1028.55318944 Eh           27988.35519 eV
Virial Ratio       :            2.00506702


DFT components:
N(Alpha)           :       84.000053302672 electrons
N(Beta)            :       84.000053302672 electrons
N(Total)           :      168.000106605343 electrons
E(X)               :     -111.356359309442 Eh       
E(C)               :       -7.374481458677 Eh       
E(XC)              :     -118.730840768120 Eh       
DFET-embed. en.    :        0.000000000000 Eh       
CPCM Solvation Model Properties:
Surface-charge          :           -1.03158273
Charge-correction       :            0.00277628 Eh               0.07555 eV
Free-energy (cav+disp)  :  This term is not implemented in the current solvation scheme

---------------
SCF CONVERGENCE
---------------

  Last Energy change         ...    1.1260e-09  Tolerance :   1.0000e-08
  Last MAX-Density change    ...    2.6645e-15  Tolerance :   1.0000e-07
  Last RMS-Density change    ...    1.7579e-17  Tolerance :   5.0000e-09
  Last Orbital Gradient      ...    1.8141e-06  Tolerance :   1.0000e-05
  Last Orbital Rotation      ...    1.0615e-05  Tolerance :   1.0000e-05

             **** THE GBW FILE WAS UPDATED (NMU-H_ES.gbw) ****
             **** DENSITY NMU-H_ES.scfp WAS UPDATED ****
             **** ENERGY FILE WAS UPDATED (NMU-H_ES.en.tmp) ****
             **** THE GBW FILE WAS UPDATED (NMU-H_ES.gbw) ****
             **** DENSITY NMU-H_ES.scfp WAS UPDATED ****
----------------
ORBITAL ENERGIES
----------------

  NO   OCC          E(Eh)            E(eV) 
   0   2.0000     -19.199407      -522.4424 
   1   2.0000     -19.117977      -520.2266 
   2   2.0000     -14.439385      -392.9156 
   3   2.0000     -14.348105      -390.4318 
   4   2.0000     -10.313688      -280.6497 
   5   2.0000     -10.271319      -279.4968 
   6   2.0000     -10.271223      -279.4942 
   7   2.0000     -10.248225      -278.8684 
   8   2.0000     -10.242905      -278.7236 
   9   2.0000     -10.236367      -278.5457 
  10   2.0000     -10.232714      -278.4463 
  11   2.0000     -10.224095      -278.2118 
  12   2.0000     -10.208213      -277.7796 
  13   2.0000     -10.204986      -277.6918 
  14   2.0000     -10.204377      -277.6752 
  15   2.0000     -10.201037      -277.5843 
  16   2.0000     -10.185588      -277.1639 
  17   2.0000     -10.182463      -277.0789 
  18   2.0000     -10.182455      -277.0787 
  19   2.0000     -10.180391      -277.0225 
  20   2.0000     -10.174450      -276.8609 
  21   2.0000     -10.172846      -276.8172 
  22   2.0000     -10.171162      -276.7714 
  23   2.0000     -10.171069      -276.7689 
  24   2.0000      -1.128333       -30.7035 
  25   2.0000      -1.042815       -28.3765 
  26   2.0000      -1.024523       -27.8787 
  27   2.0000      -0.973378       -26.4870 
  28   2.0000      -0.879611       -23.9354 
  29   2.0000      -0.865144       -23.5418 
  30   2.0000      -0.839537       -22.8450 
  31   2.0000      -0.831418       -22.6240 
  32   2.0000      -0.813494       -22.1363 
  33   2.0000      -0.781564       -21.2674 
  34   2.0000      -0.768558       -20.9135 
  35   2.0000      -0.760888       -20.7048 
  36   2.0000      -0.704708       -19.1761 
  37   2.0000      -0.700137       -19.0517 
  38   2.0000      -0.692839       -18.8531 
  39   2.0000      -0.669577       -18.2201 
  40   2.0000      -0.658934       -17.9305 
  41   2.0000      -0.639757       -17.4087 
  42   2.0000      -0.632035       -17.1986 
  43   2.0000      -0.618950       -16.8425 
  44   2.0000      -0.598648       -16.2900 
  45   2.0000      -0.566015       -15.4020 
  46   2.0000      -0.544072       -14.8049 
  47   2.0000      -0.542762       -14.7693 
  48   2.0000      -0.537856       -14.6358 
  49   2.0000      -0.531517       -14.4633 
  50   2.0000      -0.518856       -14.1188 
  51   2.0000      -0.498661       -13.5693 
  52   2.0000      -0.489666       -13.3245 
  53   2.0000      -0.484366       -13.1803 
  54   2.0000      -0.478770       -13.0280 
  55   2.0000      -0.474434       -12.9100 
  56   2.0000      -0.466635       -12.6978 
  57   2.0000      -0.462735       -12.5917 
  58   2.0000      -0.458663       -12.4809 
  59   2.0000      -0.447089       -12.1659 
  60   2.0000      -0.444721       -12.1015 
  61   2.0000      -0.436565       -11.8795 
  62   2.0000      -0.431601       -11.7445 
  63   2.0000      -0.423238       -11.5169 
  64   2.0000      -0.421204       -11.4615 
  65   2.0000      -0.412159       -11.2154 
  66   2.0000      -0.410204       -11.1622 
  67   2.0000      -0.405893       -11.0449 
  68   2.0000      -0.397578       -10.8187 
  69   2.0000      -0.381982       -10.3943 
  70   2.0000      -0.369313       -10.0495 
  71   2.0000      -0.362185        -9.8556 
  72   2.0000      -0.354985        -9.6596 
  73   2.0000      -0.346334        -9.4242 
  74   2.0000      -0.345069        -9.3898 
  75   2.0000      -0.341033        -9.2800 
  76   2.0000      -0.338029        -9.1982 
  77   2.0000      -0.324714        -8.8359 
  78   2.0000      -0.320546        -8.7225 
  79   2.0000      -0.315075        -8.5736 
  80   2.0000      -0.297441        -8.0938 
  81   2.0000      -0.276998        -7.5375 
  82   2.0000      -0.243073        -6.6144 
  83   2.0000      -0.193961        -5.2779 
  84   0.0000      -0.108245        -2.9455 
  85   0.0000      -0.064873        -1.7653 
  86   0.0000      -0.056154        -1.5280 
  87   0.0000      -0.012515        -0.3406 
  88   0.0000      -0.000963        -0.0262 
  89   0.0000       0.026634         0.7248 
  90   0.0000       0.032884         0.8948 
  91   0.0000       0.047809         1.3009 
  92   0.0000       0.058497         1.5918 
  93   0.0000       0.061014         1.6603 
  94   0.0000       0.062337         1.6963 
  95   0.0000       0.067246         1.8298 
  96   0.0000       0.072820         1.9815 
  97   0.0000       0.074233         2.0200 
  98   0.0000       0.077485         2.1085 
  99   0.0000       0.082038         2.2324 
 100   0.0000       0.086893         2.3645 
 101   0.0000       0.089580         2.4376 
 102   0.0000       0.093408         2.5418 
 103   0.0000       0.099299         2.7021 
 104   0.0000       0.100430         2.7328 
 105   0.0000       0.104872         2.8537 
 106   0.0000       0.114862         3.1256 
 107   0.0000       0.118138         3.2147 
 108   0.0000       0.122208         3.3254 
 109   0.0000       0.124858         3.3976 
 110   0.0000       0.136864         3.7243 
 111   0.0000       0.138128         3.7586 
 112   0.0000       0.144137         3.9222 
 113   0.0000       0.150491         4.0951 
 114   0.0000       0.150856         4.1050 
 115   0.0000       0.157454         4.2845 
 116   0.0000       0.165447         4.5020 
 117   0.0000       0.167813         4.5664 
 118   0.0000       0.173723         4.7272 
 119   0.0000       0.176906         4.8139 
 120   0.0000       0.177510         4.8303 
 121   0.0000       0.182319         4.9611 
 122   0.0000       0.184665         5.0250 
 123   0.0000       0.187071         5.0905 
 124   0.0000       0.193038         5.2528 
 125   0.0000       0.196599         5.3497 
 126   0.0000       0.200943         5.4679 
 127   0.0000       0.202164         5.5012 
 128   0.0000       0.204303         5.5594 
 129   0.0000       0.207842         5.6557 
 130   0.0000       0.214569         5.8387 
 131   0.0000       0.218932         5.9575 
 132   0.0000       0.220909         6.0112 
 133   0.0000       0.225190         6.1277 
 134   0.0000       0.227456         6.1894 
 135   0.0000       0.235959         6.4208 
 136   0.0000       0.237575         6.4647 
 137   0.0000       0.240950         6.5566 
 138   0.0000       0.246240         6.7005 
 139   0.0000       0.253312         6.8930 
 140   0.0000       0.256516         6.9801 
 141   0.0000       0.262022         7.1300 
 142   0.0000       0.264785         7.2052 
 143   0.0000       0.270797         7.3688 
 144   0.0000       0.273554         7.4438 
 145   0.0000       0.277755         7.5581 
 146   0.0000       0.284594         7.7442 
 147   0.0000       0.288278         7.8444 
 148   0.0000       0.290781         7.9126 
 149   0.0000       0.296303         8.0628 
 150   0.0000       0.301277         8.1982 
 151   0.0000       0.309060         8.4100 
 152   0.0000       0.313055         8.5187 
 153   0.0000       0.317591         8.6421 
 154   0.0000       0.319595         8.6966 
 155   0.0000       0.328453         8.9377 
 156   0.0000       0.331898         9.0314 
 157   0.0000       0.334777         9.1097 
 158   0.0000       0.337881         9.1942 
 159   0.0000       0.346168         9.4197 
 160   0.0000       0.347045         9.4436 
 161   0.0000       0.351926         9.5764 
 162   0.0000       0.352906         9.6031 
 163   0.0000       0.361686         9.8420 
 164   0.0000       0.365837         9.9549 
 165   0.0000       0.370142        10.0721 
 166   0.0000       0.371649        10.1131 
 167   0.0000       0.380993        10.3673 
 168   0.0000       0.387599        10.5471 
 169   0.0000       0.396564        10.7911 
 170   0.0000       0.401179        10.9166 
 171   0.0000       0.406042        11.0490 
 172   0.0000       0.406623        11.0648 
 173   0.0000       0.410283        11.1644 
 174   0.0000       0.413840        11.2611 
 175   0.0000       0.415509        11.3066 
 176   0.0000       0.419562        11.4169 
 177   0.0000       0.423388        11.5210 
 178   0.0000       0.427748        11.6396 
 179   0.0000       0.430984        11.7277 
 180   0.0000       0.433016        11.7830 
 181   0.0000       0.437515        11.9054 
 182   0.0000       0.438529        11.9330 
 183   0.0000       0.440896        11.9974 
 184   0.0000       0.443500        12.0682 
 185   0.0000       0.447942        12.1891 
 186   0.0000       0.451197        12.2777 
 187   0.0000       0.454017        12.3544 
 188   0.0000       0.456988        12.4353 
 189   0.0000       0.459141        12.4939 
 190   0.0000       0.461780        12.5657 
 191   0.0000       0.465582        12.6691 
 192   0.0000       0.466697        12.6995 
 193   0.0000       0.471238        12.8230 
 194   0.0000       0.476320        12.9613 
 195   0.0000       0.479594        13.0504 
 196   0.0000       0.483962        13.1693 
 197   0.0000       0.486931        13.2501 
 198   0.0000       0.493901        13.4397 
 199   0.0000       0.496638        13.5142 
 200   0.0000       0.503463        13.6999 
 201   0.0000       0.504901        13.7391 
 202   0.0000       0.507715        13.8156 
 203   0.0000       0.513666        13.9776 
 204   0.0000       0.518794        14.1171 
 205   0.0000       0.522400        14.2152 
 206   0.0000       0.526269        14.3205 
 207   0.0000       0.534079        14.5330 
 208   0.0000       0.546906        14.8821 
 209   0.0000       0.553936        15.0734 
 210   0.0000       0.558774        15.2050 
 211   0.0000       0.565815        15.3966 
 212   0.0000       0.568687        15.4748 
 213   0.0000       0.572366        15.5749 
 214   0.0000       0.586539        15.9605 
 215   0.0000       0.590476        16.0677 
 216   0.0000       0.591592        16.0980 
 217   0.0000       0.597154        16.2494 
 218   0.0000       0.606427        16.5017 
 219   0.0000       0.608018        16.5450 
 220   0.0000       0.614133        16.7114 
 221   0.0000       0.618073        16.8186 
 222   0.0000       0.631110        17.1734 
 223   0.0000       0.635385        17.2897 
 224   0.0000       0.638198        17.3663 
 225   0.0000       0.644419        17.5355 
 226   0.0000       0.649879        17.6841 
 227   0.0000       0.653866        17.7926 
 228   0.0000       0.657138        17.8816 
 229   0.0000       0.662711        18.0333 
 230   0.0000       0.679548        18.4914 
 231   0.0000       0.680015        18.5041 
 232   0.0000       0.685223        18.6459 
 233   0.0000       0.688298        18.7295 
 234   0.0000       0.700064        19.0497 
 235   0.0000       0.702413        19.1136 
 236   0.0000       0.709692        19.3117 
 237   0.0000       0.714148        19.4329 
 238   0.0000       0.718200        19.5432 
 239   0.0000       0.719106        19.5679 
 240   0.0000       0.724459        19.7135 
 241   0.0000       0.730311        19.8728 
 242   0.0000       0.742471        20.2037 
 243   0.0000       0.744023        20.2459 
 244   0.0000       0.746885        20.3238 
 245   0.0000       0.751480        20.4488 
 246   0.0000       0.755394        20.5553 
 247   0.0000       0.763669        20.7805 
 248   0.0000       0.765821        20.8390 
 249   0.0000       0.775216        21.0947 
 250   0.0000       0.779761        21.2184 
 251   0.0000       0.782539        21.2940 
 252   0.0000       0.789382        21.4802 
 253   0.0000       0.792942        21.5770 
 254   0.0000       0.805004        21.9053 
 255   0.0000       0.814513        22.1640 
 256   0.0000       0.815999        22.2045 
 257   0.0000       0.820863        22.3368 
 258   0.0000       0.824937        22.4477 
 259   0.0000       0.832898        22.6643 
 260   0.0000       0.843765        22.9600 
 261   0.0000       0.845135        22.9973 
 262   0.0000       0.854364        23.2484 
 263   0.0000       0.858510        23.3613 
 264   0.0000       0.863232        23.4897 
 265   0.0000       0.866569        23.5805 
 266   0.0000       0.867256        23.5992 
 267   0.0000       0.871838        23.7239 
 268   0.0000       0.873590        23.7716 
 269   0.0000       0.884459        24.0674 
 270   0.0000       0.893042        24.3009 
 271   0.0000       0.901816        24.5397 
 272   0.0000       0.909460        24.7477 
 273   0.0000       0.913156        24.8482 
 274   0.0000       0.925152        25.1747 
 275   0.0000       0.930608        25.3231 
 276   0.0000       0.937583        25.5129 
 277   0.0000       0.942071        25.6351 
 278   0.0000       0.948162        25.8008 
 279   0.0000       0.962784        26.1987 
 280   0.0000       0.964121        26.2351 
 281   0.0000       0.970207        26.4007 
 282   0.0000       0.982574        26.7372 
 283   0.0000       0.997361        27.1396 
 284   0.0000       1.013807        27.5871 
 285   0.0000       1.019497        27.7419 
 286   0.0000       1.022507        27.8238 
 287   0.0000       1.026289        27.9267 
 288   0.0000       1.044057        28.4102 
 289   0.0000       1.054107        28.6837 
 290   0.0000       1.059618        28.8337 
 291   0.0000       1.062633        28.9157 
 292   0.0000       1.069977        29.1156 
 293   0.0000       1.081293        29.4235 
 294   0.0000       1.090289        29.6683 
 295   0.0000       1.094384        29.7797 
 296   0.0000       1.098250        29.8849 
 297   0.0000       1.112980        30.2857 
 298   0.0000       1.117577        30.4108 
 299   0.0000       1.122151        30.5353 
 300   0.0000       1.134917        30.8827 
 301   0.0000       1.137489        30.9526 
 302   0.0000       1.141965        31.0744 
 303   0.0000       1.152308        31.3559 
 304   0.0000       1.154987        31.4288 
 305   0.0000       1.170867        31.8609 
 306   0.0000       1.178326        32.0639 
 307   0.0000       1.192519        32.4501 
 308   0.0000       1.205757        32.8103 
 309   0.0000       1.210669        32.9440 
 310   0.0000       1.220342        33.2072 
 311   0.0000       1.224689        33.3255 
 312   0.0000       1.226360        33.3710 
 313   0.0000       1.236173        33.6380 
 314   0.0000       1.243474        33.8367 
 315   0.0000       1.247686        33.9513 
 316   0.0000       1.253966        34.1222 
 317   0.0000       1.257373        34.2149 
 318   0.0000       1.261619        34.3304 
 319   0.0000       1.265966        34.4487 
 320   0.0000       1.273397        34.6509 
 321   0.0000       1.282297        34.8931 
 322   0.0000       1.295946        35.2645 
 323   0.0000       1.298350        35.3299 
 324   0.0000       1.311556        35.6893 
 325   0.0000       1.316707        35.8294 
 326   0.0000       1.324756        36.0484 
 327   0.0000       1.331839        36.2412 
 328   0.0000       1.336990        36.3813 
 329   0.0000       1.345223        36.6054 
 330   0.0000       1.350068        36.7372 
 331   0.0000       1.352514        36.8038 
 332   0.0000       1.366289        37.1786 
 333   0.0000       1.375804        37.4375 
 334   0.0000       1.378448        37.5095 
 335   0.0000       1.389481        37.8097 
 336   0.0000       1.407666        38.3045 
 337   0.0000       1.414431        38.4886 
 338   0.0000       1.417633        38.5758 
 339   0.0000       1.434847        39.0442 
 340   0.0000       1.435906        39.0730 
 341   0.0000       1.441518        39.2257 
 342   0.0000       1.442691        39.2576 
 343   0.0000       1.454658        39.5833 
 344   0.0000       1.460996        39.7557 
 345   0.0000       1.464005        39.8376 
 346   0.0000       1.476085        40.1663 
 347   0.0000       1.488222        40.4966 
 348   0.0000       1.497074        40.7374 
 349   0.0000       1.499796        40.8115 
 350   0.0000       1.503735        40.9187 
 351   0.0000       1.519286        41.3419 
 352   0.0000       1.527198        41.5572 
 353   0.0000       1.528731        41.5989 
 354   0.0000       1.532662        41.7059 
 355   0.0000       1.538244        41.8578 
 356   0.0000       1.542650        41.9776 
 357   0.0000       1.553322        42.2680 
 358   0.0000       1.557083        42.3704 
 359   0.0000       1.568666        42.6856 
 360   0.0000       1.573406        42.8146 
 361   0.0000       1.586992        43.1842 
 362   0.0000       1.590958        43.2922 
 363   0.0000       1.596479        43.4424 
 364   0.0000       1.603760        43.6405 
 365   0.0000       1.607002        43.7287 
 366   0.0000       1.612681        43.8833 
 367   0.0000       1.616059        43.9752 
 368   0.0000       1.619178        44.0601 
 369   0.0000       1.625435        44.2303 
 370   0.0000       1.633417        44.4475 
 371   0.0000       1.642445        44.6932 
 372   0.0000       1.647133        44.8208 
 373   0.0000       1.654945        45.0333 
 374   0.0000       1.658247        45.1232 
 375   0.0000       1.666997        45.3613 
 376   0.0000       1.672030        45.4983 
 377   0.0000       1.683674        45.8151 
 378   0.0000       1.686957        45.9044 
 379   0.0000       1.692112        46.0447 
 380   0.0000       1.697464        46.1903 
 381   0.0000       1.703233        46.3473 
 382   0.0000       1.708948        46.5028 
 383   0.0000       1.716276        46.7023 
 384   0.0000       1.719945        46.8021 
 385   0.0000       1.723951        46.9111 
 386   0.0000       1.729641        47.0659 
 387   0.0000       1.741378        47.3853 
 388   0.0000       1.746917        47.5360 
 389   0.0000       1.760321        47.9008 
 390   0.0000       1.762758        47.9671 
 391   0.0000       1.774795        48.2946 
 392   0.0000       1.777840        48.3775 
 393   0.0000       1.789925        48.7063 
 394   0.0000       1.791082        48.7378 
 395   0.0000       1.803890        49.0864 
 396   0.0000       1.813994        49.3613 
 397   0.0000       1.825454        49.6731 
 398   0.0000       1.832836        49.8740 
 399   0.0000       1.841280        50.1038 
 400   0.0000       1.853349        50.4322 
 401   0.0000       1.858350        50.5683 
 402   0.0000       1.867419        50.8150 
 403   0.0000       1.876042        51.0497 
 404   0.0000       1.895377        51.5758 
 405   0.0000       1.901927        51.7541 
 406   0.0000       1.906906        51.8895 
 407   0.0000       1.911233        52.0073 
 408   0.0000       1.922031        52.3011 
 409   0.0000       1.934058        52.6284 
 410   0.0000       1.955666        53.2164 
 411   0.0000       1.960753        53.3548 
 412   0.0000       1.972537        53.6755 
 413   0.0000       1.989248        54.1302 
 414   0.0000       2.008244        54.6471 
 415   0.0000       2.013189        54.7817 
 416   0.0000       2.020551        54.9820 
 417   0.0000       2.024496        55.0893 
 418   0.0000       2.027748        55.1778 
 419   0.0000       2.033004        55.3209 
 420   0.0000       2.040383        55.5216 
 421   0.0000       2.055226        55.9256 
 422   0.0000       2.064489        56.1776 
 423   0.0000       2.080800        56.6215 
 424   0.0000       2.101513        57.1851 
 425   0.0000       2.120496        57.7016 
 426   0.0000       2.125777        57.8453 
 427   0.0000       2.130917        57.9852 
 428   0.0000       2.142042        58.2879 
 429   0.0000       2.159984        58.7762 
 430   0.0000       2.171045        59.0771 
 431   0.0000       2.177209        59.2449 
 432   0.0000       2.190625        59.6099 
 433   0.0000       2.202148        59.9235 
 434   0.0000       2.208718        60.1023 
 435   0.0000       2.214236        60.2524 
 436   0.0000       2.220290        60.4172 
 437   0.0000       2.223281        60.4986 
 438   0.0000       2.233892        60.7873 
 439   0.0000       2.246282        61.1244 
 440   0.0000       2.259385        61.4810 
 441   0.0000       2.260504        61.5114 
 442   0.0000       2.263586        61.5953 
 443   0.0000       2.276625        61.9501 
 444   0.0000       2.286805        62.2271 
 445   0.0000       2.291711        62.3606 
 446   0.0000       2.294313        62.4314 
 447   0.0000       2.302664        62.6587 
 448   0.0000       2.309621        62.8480 
 449   0.0000       2.315454        63.0067 
 450   0.0000       2.327529        63.3353 
 451   0.0000       2.340266        63.6819 
 452   0.0000       2.356258        64.1170 
 453   0.0000       2.364749        64.3481 
 454   0.0000       2.379485        64.7491 
 455   0.0000       2.387568        64.9690 
 456   0.0000       2.399125        65.2835 
 457   0.0000       2.405201        65.4488 
 458   0.0000       2.419201        65.8298 
 459   0.0000       2.430486        66.1369 
 460   0.0000       2.438302        66.3496 
 461   0.0000       2.446302        66.5673 
 462   0.0000       2.453964        66.7757 
 463   0.0000       2.480569        67.4997 
 464   0.0000       2.492735        67.8308 
 465   0.0000       2.504059        68.1389 
 466   0.0000       2.515032        68.4375 
 467   0.0000       2.531412        68.8832 
 468   0.0000       2.551010        69.4165 
 469   0.0000       2.555401        69.5360 
 470   0.0000       2.562558        69.7308 
 471   0.0000       2.571502        69.9741 
 472   0.0000       2.576437        70.1084 
 473   0.0000       2.592161        70.5363 
 474   0.0000       2.599016        70.7228 
 475   0.0000       2.616727        71.2048 
 476   0.0000       2.623863        71.3989 
 477   0.0000       2.626399        71.4680 
 478   0.0000       2.635240        71.7085 
 479   0.0000       2.642398        71.9033 
 480   0.0000       2.658093        72.3304 
 481   0.0000       2.661526        72.4238 
 482   0.0000       2.665252        72.5252 
 483   0.0000       2.665764        72.5391 
 484   0.0000       2.681219        72.9597 
 485   0.0000       2.688290        73.1521 
 486   0.0000       2.690556        73.2138 
 487   0.0000       2.694061        73.3091 
 488   0.0000       2.699460        73.4560 
 489   0.0000       2.705316        73.6154 
 490   0.0000       2.712516        73.8113 
 491   0.0000       2.732735        74.3615 
 492   0.0000       2.737777        74.4987 
 493   0.0000       2.740318        74.5679 
 494   0.0000       2.750819        74.8536 
 495   0.0000       2.768112        75.3242 
 496   0.0000       2.771319        75.4114 
 497   0.0000       2.774869        75.5080 
 498   0.0000       2.781999        75.7020 
 499   0.0000       2.783123        75.7326 
 500   0.0000       2.792592        75.9903 
 501   0.0000       2.800490        76.2052 
 502   0.0000       2.803511        76.2874 
 503   0.0000       2.808649        76.4272 
 504   0.0000       2.817927        76.6797 
 505   0.0000       2.821956        76.7893 
 506   0.0000       2.833462        77.1024 
 507   0.0000       2.835402        77.1552 
 508   0.0000       2.842899        77.3592 
 509   0.0000       2.857592        77.7590 
 510   0.0000       2.860853        77.8478 
 511   0.0000       2.866420        77.9992 
 512   0.0000       2.869107        78.0724 
 513   0.0000       2.874731        78.2254 
 514   0.0000       2.880633        78.3860 
 515   0.0000       2.891059        78.6697 
 516   0.0000       2.898852        78.8818 
 517   0.0000       2.905726        79.0688 
 518   0.0000       2.911607        79.2288 
 519   0.0000       2.921204        79.4900 
 520   0.0000       2.927906        79.6724 
 521   0.0000       2.935549        79.8803 
 522   0.0000       2.946450        80.1770 
 523   0.0000       2.958626        80.5083 
 524   0.0000       2.964281        80.6622 
 525   0.0000       2.972921        80.8973 
 526   0.0000       2.982713        81.1638 
 527   0.0000       2.992585        81.4324 
 528   0.0000       3.008897        81.8762 
 529   0.0000       3.013480        82.0010 
 530   0.0000       3.019607        82.1677 
 531   0.0000       3.022132        82.2364 
 532   0.0000       3.028915        82.4210 
 533   0.0000       3.046218        82.8918 
 534   0.0000       3.047975        82.9396 
 535   0.0000       3.055608        83.1473 
 536   0.0000       3.058849        83.2355 
 537   0.0000       3.073381        83.6310 
 538   0.0000       3.082628        83.8826 
 539   0.0000       3.091623        84.1273 
 540   0.0000       3.100606        84.3718 
 541   0.0000       3.103767        84.4578 
 542   0.0000       3.110649        84.6451 
 543   0.0000       3.115053        84.7649 
 544   0.0000       3.121637        84.9441 
 545   0.0000       3.124001        85.0084 
 546   0.0000       3.132255        85.2330 
 547   0.0000       3.144169        85.5572 
 548   0.0000       3.150220        85.7219 
 549   0.0000       3.169188        86.2380 
 550   0.0000       3.171613        86.3040 
 551   0.0000       3.176754        86.4439 
 552   0.0000       3.180868        86.5558 
 553   0.0000       3.195974        86.9669 
 554   0.0000       3.198019        87.0225 
 555   0.0000       3.205044        87.2137 
 556   0.0000       3.215639        87.5020 
 557   0.0000       3.231087        87.9223 
 558   0.0000       3.239096        88.1403 
 559   0.0000       3.244638        88.2911 
 560   0.0000       3.252215        88.4973 
 561   0.0000       3.255216        88.5789 
 562   0.0000       3.259144        88.6858 
 563   0.0000       3.268013        88.9272 
 564   0.0000       3.274750        89.1105 
 565   0.0000       3.279285        89.2339 
 566   0.0000       3.289635        89.5155 
 567   0.0000       3.296077        89.6908 
 568   0.0000       3.301212        89.8305 
 569   0.0000       3.302184        89.8570 
 570   0.0000       3.311013        90.0972 
 571   0.0000       3.312412        90.1353 
 572   0.0000       3.328100        90.5622 
 573   0.0000       3.338204        90.8372 
 574   0.0000       3.343051        90.9690 
 575   0.0000       3.349161        91.1353 
 576   0.0000       3.357456        91.3610 
 577   0.0000       3.363521        91.5261 
 578   0.0000       3.371185        91.7346 
 579   0.0000       3.381387        92.0122 
 580   0.0000       3.396148        92.4139 
 581   0.0000       3.398882        92.4883 
 582   0.0000       3.421060        93.0918 
 583   0.0000       3.430181        93.3400 
 584   0.0000       3.444807        93.7380 
 585   0.0000       3.456877        94.0664 
 586   0.0000       3.474334        94.5414 
 587   0.0000       3.491582        95.0108 
 588   0.0000       3.502370        95.3043 
 589   0.0000       3.504967        95.3750 
 590   0.0000       3.516106        95.6781 
 591   0.0000       3.532336        96.1198 
 592   0.0000       3.543838        96.4327 
 593   0.0000       3.551192        96.6329 
 594   0.0000       3.563018        96.9547 
 595   0.0000       3.571392        97.1825 
 596   0.0000       3.583109        97.5014 
 597   0.0000       3.591392        97.7267 
 598   0.0000       3.597472        97.8922 
 599   0.0000       3.611651        98.2780 
 600   0.0000       3.632624        98.8487 
 601   0.0000       3.640601        99.0658 
 602   0.0000       3.645629        99.2026 
 603   0.0000       3.666425        99.7685 
 604   0.0000       3.681497       100.1786 
 605   0.0000       3.699401       100.6658 
 606   0.0000       3.715301       101.0985 
 607   0.0000       3.725211       101.3682 
 608   0.0000       3.745906       101.9313 
 609   0.0000       3.763601       102.4128 
 610   0.0000       3.777424       102.7889 
 611   0.0000       3.791011       103.1586 
 612   0.0000       3.804490       103.5254 
 613   0.0000       3.816726       103.8584 
 614   0.0000       3.854615       104.8894 
 615   0.0000       3.867181       105.2313 
 616   0.0000       3.875902       105.4686 
 617   0.0000       3.883578       105.6775 
 618   0.0000       3.896316       106.0241 
 619   0.0000       3.903988       106.2329 
 620   0.0000       3.929700       106.9326 
 621   0.0000       3.945566       107.3643 
 622   0.0000       3.951162       107.5166 
 623   0.0000       3.956329       107.6572 
 624   0.0000       3.971298       108.0645 
 625   0.0000       3.976353       108.2021 
 626   0.0000       4.000093       108.8481 
 627   0.0000       4.009363       109.1003 
 628   0.0000       4.033898       109.7680 
 629   0.0000       4.044837       110.0656 
 630   0.0000       4.064215       110.5929 
 631   0.0000       4.093920       111.4012 
 632   0.0000       4.117301       112.0375 
 633   0.0000       4.128223       112.3347 
 634   0.0000       4.181582       113.7866 
 635   0.0000       4.226361       115.0051 
 636   0.0000       4.229175       115.0817 
 637   0.0000       4.262854       115.9982 
 638   0.0000       4.282379       116.5295 
 639   0.0000       4.316269       117.4516 
 640   0.0000       4.373670       119.0136 
 641   0.0000       4.413961       120.1100 
 642   0.0000       4.461012       121.3903 
 643   0.0000       4.506421       122.6259 
 644   0.0000       4.530047       123.2688 
 645   0.0000       4.638342       126.2157 
 646   0.0000       4.659265       126.7850 
 647   0.0000       4.698524       127.8533 
 648   0.0000       4.922884       133.9585 
 649   0.0000       5.007918       136.2724 
 650   0.0000       5.027554       136.8067 
 651   0.0000       5.148622       140.1011 
 652   0.0000       5.206742       141.6827 
 653   0.0000       5.397671       146.8781 
 654   0.0000       5.515637       150.0881 
 655   0.0000       5.749323       156.4470 
 656   0.0000       6.299231       171.4108 
 657   0.0000       6.415387       174.5716 
[...]
 19:    273.39   0.009607   48.55  0.010966  (-0.025487 -0.101079 -0.009949)
 20:    296.55   0.000856    4.33  0.000901  (-0.003394  0.009391 -0.028307)
 21:    320.72   0.000934    4.72  0.000909  ( 0.017269  0.010797 -0.022222)
 22:    341.01   0.004146   20.95  0.003794  (-0.060196 -0.010400 -0.007873)
 23:    361.00   0.000953    4.82  0.000824  (-0.005547 -0.027598  0.005630)
 24:    369.52   0.000806    4.07  0.000681  ( 0.003947 -0.019031  0.017402)
 25:    400.34   0.000511    2.58  0.000399  (-0.019918 -0.000529 -0.001241)
 26:    420.67   0.000871    4.40  0.000646  ( 0.016923 -0.018870 -0.001892)
 27:    454.35   0.005241   26.49  0.003600  (-0.052812  0.028307 -0.003035)
 28:    464.25   0.001115    5.63  0.000749  (-0.019288 -0.015956 -0.011083)
 29:    476.08   0.003679   18.59  0.002411  ( 0.047407 -0.012626  0.002124)
 30:    487.25   0.004511   22.80  0.002889  (-0.049615  0.018519  0.009195)
 31:    506.91   0.000738    3.73  0.000455  ( 0.018625  0.009576 -0.003995)
 32:    530.32   0.003227   16.31  0.001899  (-0.042816  0.008113  0.000400)
 33:    543.59   0.000610    3.08  0.000350  (-0.016721  0.008181  0.001840)
 34:    559.47   0.005285   26.71  0.002948  (-0.051564 -0.009989 -0.013763)
 35:    585.99   0.005705   28.83  0.003038  ( 0.045072 -0.031605 -0.002803)
 36:    600.05   0.007166   36.21  0.003727  (-0.033611 -0.050805 -0.004005)
 37:    610.50   0.000351    1.77  0.000179  (-0.004211 -0.012076  0.003960)
 38:    612.83   0.001917    9.69  0.000976  ( 0.030427 -0.005153 -0.004859)
 39:    634.15   0.000549    2.77  0.000270  (-0.016363 -0.001498  0.000259)
 40:    656.88   0.000519    2.62  0.000246  (-0.011605  0.009472  0.004699)
 41:    696.02   0.008154   41.21  0.003656  (-0.057333 -0.019175  0.001014)
 42:    705.39   0.000630    3.18  0.000279  ( 0.014786 -0.007694  0.000918)
 43:    724.87   0.008170   41.29  0.003517  ( 0.028697  0.051737  0.004142)
 44:    738.67   0.001743    8.81  0.000736  (-0.000413  0.026672  0.004993)
 45:    774.68   0.002314   11.69  0.000932  (-0.021233  0.003639  0.021636)
 46:    786.96   0.001636    8.27  0.000649  (-0.023332  0.007753  0.006659)
 47:    800.51   0.007731   39.07  0.003014  (-0.000281 -0.007508  0.054381)
 48:    805.28   0.003418   17.27  0.001324  ( 0.010723 -0.017766  0.029896)
 49:    854.67   0.000466    2.36  0.000170  (-0.010990 -0.000052  0.007038)
 50:    866.71   0.002198   11.11  0.000791  ( 0.027936 -0.003185  0.000850)
 51:    877.16   0.003401   17.19  0.001210  ( 0.022193 -0.026636 -0.002808)
 52:    889.31   0.001234    6.24  0.000433  ( 0.009897  0.013115  0.012774)
 53:    897.30   0.000791    4.00  0.000275  (-0.015202 -0.001728  0.006416)
 54:    906.25   0.007170   36.23  0.002469  ( 0.048704  0.009219 -0.003428)
 55:    921.09   0.001464    7.40  0.000496  ( 0.001524  0.004491 -0.021757)
 56:    937.09   0.000787    3.98  0.000262  ( 0.005901  0.015078 -0.000147)
 57:    951.57   0.005525   27.92  0.001812  ( 0.036086 -0.022398 -0.002807)
 58:    972.58   0.007321   37.00  0.002349  ( 0.010628  0.005785 -0.046931)
 59:    984.34   0.002521   12.74  0.000799  (-0.020234  0.009156  0.017495)
 60:    996.39   0.008133   41.10  0.002547  (-0.044445  0.020529 -0.012266)
 61:   1028.30   0.001323    6.69  0.000402  ( 0.017149 -0.009507 -0.004133)
 62:   1029.07   0.001003    5.07  0.000304  ( 0.008157 -0.014704 -0.004613)
 63:   1038.81   0.004725   23.88  0.001419  (-0.008235 -0.032036 -0.018034)
 64:   1050.02   0.004717   23.84  0.001402  (-0.037429  0.000187 -0.000989)
 65:   1060.59   0.001196    6.04  0.000352  (-0.002811  0.016164 -0.009096)
 66:   1079.18   0.001039    5.25  0.000301  ( 0.004122 -0.006203  0.015654)
 67:   1088.94   0.002195   11.09  0.000629  (-0.022546 -0.009897  0.004775)
 68:   1097.48   0.001268    6.41  0.000361  ( 0.005792 -0.006456 -0.016890)
 69:   1105.43   0.010665   53.90  0.003011  ( 0.044711 -0.031561 -0.003946)
 70:   1122.84   0.005611   28.35  0.001559  ( 0.027491 -0.027992  0.004476)
 71:   1148.71   0.007889   39.87  0.002143  ( 0.000854  0.045057  0.010594)
 72:   1189.35   0.003356   16.96  0.000881  (-0.026494  0.013365 -0.000046)
 73:   1200.12   0.073030  369.07  0.018990  ( 0.137733 -0.004393  0.000030)
 74:   1208.50   0.001562    7.89  0.000403  ( 0.017349  0.004594  0.009012)
 75:   1212.62   0.001398    7.06  0.000360  ( 0.011763 -0.013651  0.005911)
 76:   1229.42   0.068841  347.89  0.017474  ( 0.125899 -0.040256 -0.001625)
 77:   1232.82   0.000810    4.09  0.000205  ( 0.012252 -0.006592  0.003394)
 78:   1236.23   0.048209  243.63  0.012169  ( 0.097581 -0.050862 -0.007772)
 79:   1267.45   0.001421    7.18  0.000350  ( 0.009074 -0.010177 -0.012805)
 80:   1293.42   0.001268    6.41  0.000306  (-0.014098 -0.010181 -0.001862)
 81:   1307.16   0.093149  470.74  0.022238  ( 0.147538 -0.020277 -0.007690)
 82:   1310.30   0.146934  742.54  0.034994  ( 0.181050 -0.045788  0.010889)
 83:   1318.87   0.002726   13.77  0.000645  (-0.010117  0.000349  0.023290)
 84:   1342.06   0.103457  522.83  0.024056  ( 0.148967 -0.042628 -0.006937)
 85:   1347.03   0.035547  179.64  0.008235  (-0.081791  0.039189 -0.003079)
 86:   1352.65   0.029627  149.72  0.006835  (-0.063662  0.050806  0.014177)
 87:   1356.69   0.000482    2.43  0.000111  (-0.009182  0.005111  0.000633)
 88:   1379.94   0.001731    8.75  0.000391  ( 0.019775 -0.000277  0.000526)
 89:   1383.78   0.021550  108.90  0.004860  ( 0.041323 -0.054189 -0.014688)
 90:   1386.63   0.007252   36.65  0.001632  (-0.003079 -0.037920 -0.013591)
 91:   1392.77   0.020311  102.64  0.004551  ( 0.057635 -0.031913 -0.014516)
 92:   1400.68   0.010626   53.70  0.002367  (-0.034847  0.032767  0.008914)
 93:   1439.54   0.005798   29.30  0.001257  (-0.015209  0.012785  0.029361)
 94:   1447.00   0.023384  118.17  0.005043  ( 0.052403 -0.047695  0.004698)
 95:   1457.74   0.014309   72.31  0.003063  (-0.053002  0.015582  0.003318)
 96:   1459.66   0.003071   15.52  0.000657  (-0.022761  0.011652  0.001640)
 97:   1470.48   0.019809  100.11  0.004204  ( 0.057956 -0.025826  0.013342)
 98:   1473.08   0.001650    8.34  0.000350  ( 0.006157 -0.016419 -0.006484)
 99:   1476.31   0.003387   17.12  0.000716  ( 0.022722 -0.014084  0.001125)
100:   1484.22   0.000543    2.74  0.000114  ( 0.008760  0.005972  0.001309)
101:   1485.54   0.002068   10.45  0.000434  ( 0.015943 -0.001980 -0.013278)
102:   1493.22   0.019890  100.51  0.004157  (-0.040352  0.045207  0.022017)
103:   1512.03   0.035830  181.07  0.007395  (-0.078210  0.035318  0.005543)
104:   1533.30   0.179362  906.42  0.036504  (-0.182465  0.054549  0.015347)
105:   1577.48   0.088329  446.38  0.017474  ( 0.130370  0.021719 -0.002343)
106:   1594.45   0.190821  964.33  0.037347  ( 0.185364 -0.053214  0.012478)
107:   1647.45   0.007326   37.02  0.001388  ( 0.029310 -0.022948  0.001402)
108:   1676.68   0.008960   45.28  0.001668  (-0.007902  0.000870 -0.040055)
109:   1726.09   0.331832  1676.94  0.059992  (-0.222181 -0.098165 -0.031488)
110:   3014.82   0.008687   43.90  0.000899  ( 0.018440  0.019939 -0.012711)
111:   3018.23   0.007142   36.09  0.000738  (-0.009018 -0.013977 -0.021489)
112:   3023.99   0.016289   82.32  0.001681  (-0.038374  0.002876  0.014147)
113:   3031.78   0.033165  167.60  0.003414  ( 0.041594 -0.026447 -0.031372)
114:   3052.33   0.007920   40.03  0.000810  (-0.003911  0.002870 -0.028040)
115:   3055.70   0.012884   65.11  0.001316  ( 0.000448 -0.013898  0.033502)
116:   3096.22   0.007990   40.38  0.000805  ( 0.008591  0.021097  0.016925)
117:   3102.51   0.005565   28.12  0.000560  (-0.012834 -0.018546  0.007148)
118:   3106.17   0.012032   60.80  0.001209  ( 0.033331  0.005179 -0.008425)
119:   3108.69   0.010243   51.76  0.001028  (-0.009056  0.021853  0.021649)
120:   3114.93   0.004849   24.51  0.000486  (-0.009333  0.016873 -0.010676)
121:   3132.01   0.014469   73.12  0.001442  ( 0.029135 -0.019782  0.014193)
122:   3194.67   0.000423    2.14  0.000041  (-0.005808 -0.002605 -0.000915)
123:   3196.16   0.002144   10.83  0.000209  ( 0.003369  0.013694  0.003234)
124:   3199.54   0.000332    1.68  0.000032  (-0.002801  0.001152  0.004813)
125:   3234.32   0.001022    5.16  0.000099  ( 0.002434  0.000053 -0.009625)
126:   3238.92   0.002412   12.19  0.000232  ( 0.007343 -0.005744  0.012061)
127:   3245.98   0.001994   10.07  0.000192  ( 0.011545 -0.007045 -0.002955)
128:   3658.66   0.068446  345.90  0.005838  ( 0.032522 -0.015233 -0.067441)

* The epsilon (eps) is given for a Dirac delta lineshape.
** The dipole moment derivative (T) already includes vibrational overlap.

The first frequency considered to be a vibration is 6
The total number of vibrations considered is 123


--------------------------
THERMOCHEMISTRY AT 298.15K
--------------------------

Temperature         ... 298.15 K
Pressure            ... 1.00 atm
Total Mass          ... 319.38 AMU

Throughout the following assumptions are being made:
  (1) The electronic state is orbitally nondegenerate
  (2) There are no thermally accessible electronically excited states
  (3) Hindered rotations indicated by low frequency modes are not
      treated as such but are treated as vibrations and this may
      cause some error
  (4) All equations used are the standard statistical mechanics
      equations for an ideal gas
  (5) All vibrations are strictly harmonic

freq.      27.79  E(vib)   ...       0.55 
freq.      29.80  E(vib)   ...       0.55 
freq.      60.69  E(vib)   ...       0.51 
freq.      64.92  E(vib)   ...       0.50 
freq.      69.55  E(vib)   ...       0.50 
freq.      90.44  E(vib)   ...       0.47 
freq.     124.96  E(vib)   ...       0.43 
freq.     131.82  E(vib)   ...       0.42 
freq.     159.51  E(vib)   ...       0.39 
freq.     182.39  E(vib)   ...       0.37 
freq.     187.55  E(vib)   ...       0.36 
freq.     211.53  E(vib)   ...       0.34 
freq.     255.60  E(vib)   ...       0.30 
freq.     273.39  E(vib)   ...       0.29 
freq.     296.55  E(vib)   ...       0.27 
freq.     320.72  E(vib)   ...       0.25 
freq.     341.01  E(vib)   ...       0.23 
freq.     361.00  E(vib)   ...       0.22 
freq.     369.52  E(vib)   ...       0.21 
freq.     400.34  E(vib)   ...       0.19 
freq.     420.67  E(vib)   ...       0.18 
freq.     454.35  E(vib)   ...       0.16 
freq.     464.25  E(vib)   ...       0.16 
freq.     476.08  E(vib)   ...       0.15 
freq.     487.25  E(vib)   ...       0.15 
freq.     506.91  E(vib)   ...       0.14 
freq.     530.32  E(vib)   ...       0.13 
freq.     543.59  E(vib)   ...       0.12 
freq.     559.47  E(vib)   ...       0.12 
freq.     585.99  E(vib)   ...       0.11 
freq.     600.05  E(vib)   ...       0.10 
freq.     610.50  E(vib)   ...       0.10 
freq.     612.83  E(vib)   ...       0.10 
freq.     634.15  E(vib)   ...       0.09 
freq.     656.88  E(vib)   ...       0.08 
freq.     696.02  E(vib)   ...       0.07 
freq.     705.39  E(vib)   ...       0.07 
freq.     724.87  E(vib)   ...       0.06 
freq.     738.67  E(vib)   ...       0.06 
freq.     774.68  E(vib)   ...       0.05 
freq.     786.96  E(vib)   ...       0.05 
freq.     800.51  E(vib)   ...       0.05 
freq.     805.28  E(vib)   ...       0.05 
freq.     854.67  E(vib)   ...       0.04 
freq.     866.71  E(vib)   ...       0.04 
freq.     877.16  E(vib)   ...       0.04 
freq.     889.31  E(vib)   ...       0.04 
freq.     897.30  E(vib)   ...       0.03 
freq.     906.25  E(vib)   ...       0.03 
freq.     921.09  E(vib)   ...       0.03 
freq.     937.09  E(vib)   ...       0.03 
freq.     951.57  E(vib)   ...       0.03 
freq.     972.58  E(vib)   ...       0.03 
freq.     984.34  E(vib)   ...       0.02 
freq.     996.39  E(vib)   ...       0.02 
freq.    1028.30  E(vib)   ...       0.02 
freq.    1029.07  E(vib)   ...       0.02 
freq.    1038.81  E(vib)   ...       0.02 
freq.    1050.02  E(vib)   ...       0.02 
freq.    1060.59  E(vib)   ...       0.02 
freq.    1079.18  E(vib)   ...       0.02 
freq.    1088.94  E(vib)   ...       0.02 
freq.    1097.48  E(vib)   ...       0.02 
freq.    1105.43  E(vib)   ...       0.02 
freq.    1122.84  E(vib)   ...       0.01 
freq.    1148.71  E(vib)   ...       0.01 
freq.    1189.35  E(vib)   ...       0.01 
freq.    1200.12  E(vib)   ...       0.01 
freq.    1208.50  E(vib)   ...       0.01 
freq.    1212.62  E(vib)   ...       0.01 
freq.    1229.42  E(vib)   ...       0.01 
freq.    1232.82  E(vib)   ...       0.01 
freq.    1236.23  E(vib)   ...       0.01 
freq.    1267.45  E(vib)   ...       0.01 
freq.    1293.42  E(vib)   ...       0.01 
freq.    1307.16  E(vib)   ...       0.01 
freq.    1310.30  E(vib)   ...       0.01 
freq.    1318.87  E(vib)   ...       0.01 
freq.    1342.06  E(vib)   ...       0.01 
freq.    1347.03  E(vib)   ...       0.01 
freq.    1352.65  E(vib)   ...       0.01 
freq.    1356.69  E(vib)   ...       0.01 
freq.    1379.94  E(vib)   ...       0.01 
freq.    1383.78  E(vib)   ...       0.00 
freq.    1386.63  E(vib)   ...       0.00 
freq.    1392.77  E(vib)   ...       0.00 
freq.    1400.68  E(vib)   ...       0.00 
freq.    1439.54  E(vib)   ...       0.00 
freq.    1447.00  E(vib)   ...       0.00 
freq.    1457.74  E(vib)   ...       0.00 
freq.    1459.66  E(vib)   ...       0.00 
freq.    1470.48  E(vib)   ...       0.00 
freq.    1473.08  E(vib)   ...       0.00 
freq.    1476.31  E(vib)   ...       0.00 
freq.    1484.22  E(vib)   ...       0.00 
freq.    1485.54  E(vib)   ...       0.00 
freq.    1493.22  E(vib)   ...       0.00 
freq.    1512.03  E(vib)   ...       0.00 
freq.    1533.30  E(vib)   ...       0.00 
freq.    1577.48  E(vib)   ...       0.00 
freq.    1594.45  E(vib)   ...       0.00 
freq.    1647.45  E(vib)   ...       0.00 
freq.    1676.68  E(vib)   ...       0.00 
freq.    1726.09  E(vib)   ...       0.00 
freq.    3014.82  E(vib)   ...       0.00 
freq.    3018.23  E(vib)   ...       0.00 
freq.    3023.99  E(vib)   ...       0.00 
freq.    3031.78  E(vib)   ...       0.00 
freq.    3052.33  E(vib)   ...       0.00 
freq.    3055.70  E(vib)   ...       0.00 
freq.    3096.22  E(vib)   ...       0.00 
freq.    3102.51  E(vib)   ...       0.00 
freq.    3106.17  E(vib)   ...       0.00 
freq.    3108.69  E(vib)   ...       0.00 
freq.    3114.93  E(vib)   ...       0.00 
freq.    3132.01  E(vib)   ...       0.00 
freq.    3194.67  E(vib)   ...       0.00 
freq.    3196.16  E(vib)   ...       0.00 
freq.    3199.54  E(vib)   ...       0.00 
freq.    3234.32  E(vib)   ...       0.00 
freq.    3238.92  E(vib)   ...       0.00 
freq.    3245.98  E(vib)   ...       0.00 
freq.    3658.66  E(vib)   ...       0.00 

------------
INNER ENERGY
------------

The inner energy is: U= E(el) + E(ZPE) + E(vib) + E(rot) + E(trans)
    E(el)   - is the total energy from the electronic structure calculation
              = E(kin-el) + E(nuc-el) + E(el-el) + E(nuc-nuc)
    E(ZPE)  - the the zero temperature vibrational energy from the frequency calculation
    E(vib)  - the the finite temperature correction to E(ZPE) due to population
              of excited vibrational states
    E(rot)  - is the rotational thermal energy
    E(trans)- is the translational thermal energy

Summary of contributions to the inner energy U:
Electronic energy                ...  -1033.69717823 Eh
Zero point energy                ...      0.35121808 Eh     220.39 kcal/mol
Thermal vibrational correction   ...      0.01671564 Eh      10.49 kcal/mol
Thermal rotational correction    ...      0.00141627 Eh       0.89 kcal/mol
Thermal translational correction ...      0.00141627 Eh       0.89 kcal/mol
-----------------------------------------------------------------------
Total thermal energy                  -1033.32641197 Eh


Summary of corrections to the electronic energy:
(perhaps to be used in another calculation)
Total thermal correction                  0.01954818 Eh      12.27 kcal/mol
Non-thermal (ZPE) correction              0.35121808 Eh     220.39 kcal/mol
-----------------------------------------------------------------------
Total correction                          0.37076626 Eh     232.66 kcal/mol


--------
ENTHALPY
--------

The enthalpy is H = U + kB*T
                kB is Boltzmann's constant
Total free energy                 ...  -1033.32641197 Eh 
Thermal Enthalpy correction       ...      0.00094421 Eh       0.59 kcal/mol
-----------------------------------------------------------------------
Total Enthalpy                    ...  -1033.32546776 Eh


Note: Only C1 symmetry has been detected, increase convergence thresholds 
      if your molecule has a higher symmetry. Symmetry factor of 1.0 is   
      used for the rotational entropy correction. 
 

Note: Rotational entropy computed according to Herzberg 
Infrared and Raman Spectra, Chapter V,1, Van Nostrand Reinhold, 1945 
Point Group:  C1, Symmetry Number:   1  
Rotational constants in cm-1:     0.021241     0.003864     0.003411 

Vibrational entropy computed according to the QRRHO of S. Grimme
Chem.Eur.J. 2012 18 9955


-------
ENTROPY
-------

The entropy contributions are T*S = T*(S(el)+S(vib)+S(rot)+S(trans))
     S(el)   - electronic entropy
     S(vib)  - vibrational entropy
     S(rot)  - rotational entropy
     S(trans)- translational entropy
The entropies will be listed as multiplied by the temperature to get
units of energy

Electronic entropy                ...      0.00000000 Eh      0.00 kcal/mol
Vibrational entropy               ...      0.02891054 Eh     18.14 kcal/mol
Rotational entropy                ...      0.01663397 Eh     10.44 kcal/mol
Translational entropy             ...      0.02051585 Eh     12.87 kcal/mol
-----------------------------------------------------------------------
Final entropy term                ...      0.06606036 Eh     41.45 kcal/mol

In case the symmetry of your molecule has not been determined correctly
or in case you have a reason to use a different symmetry number we print 
out the resulting rotational entropy values for sn=1,12 :
 --------------------------------------------------------
|  sn= 1 | S(rot)=       0.01663397 Eh     10.44 kcal/mol|
|  sn= 2 | S(rot)=       0.01597951 Eh     10.03 kcal/mol|
|  sn= 3 | S(rot)=       0.01559668 Eh      9.79 kcal/mol|
|  sn= 4 | S(rot)=       0.01532506 Eh      9.62 kcal/mol|
|  sn= 5 | S(rot)=       0.01511437 Eh      9.48 kcal/mol|
|  sn= 6 | S(rot)=       0.01494223 Eh      9.38 kcal/mol|
|  sn= 7 | S(rot)=       0.01479668 Eh      9.29 kcal/mol|
|  sn= 8 | S(rot)=       0.01467060 Eh      9.21 kcal/mol|
|  sn= 9 | S(rot)=       0.01455939 Eh      9.14 kcal/mol|
|  sn=10 | S(rot)=       0.01445991 Eh      9.07 kcal/mol|
|  sn=11 | S(rot)=       0.01436992 Eh      9.02 kcal/mol|
|  sn=12 | S(rot)=       0.01428777 Eh      8.97 kcal/mol|
 --------------------------------------------------------


-------------------
GIBBS FREE ENERGY
-------------------

The Gibbs free energy is G = H - T*S

Total enthalpy                    ...  -1033.32546776 Eh 
Total entropy correction          ...     -0.06606036 Eh    -41.45 kcal/mol
-----------------------------------------------------------------------
Final Gibbs free energy         ...  -1033.39152813 Eh

For completeness - the Gibbs free energy minus the electronic energy
G-E(el)                           ...      0.30565011 Eh    191.80 kcal/mol



Timings for individual modules:

Sum of individual times         ...   338360.835 sec (=5639.347 min)
GTO integral calculation        ...        4.692 sec (=   0.078 min)   0.0 %
SCF iterations                  ...     1250.630 sec (=  20.844 min)   0.4 %
CIS module                      ...      308.727 sec (=   5.145 min)   0.1 %
SCF Gradient evaluation         ...      779.878 sec (=  12.998 min)   0.2 %
Numerical frequency calculation ...   336016.908 sec (=5600.282 min)  99.3 %
                             ****ORCA TERMINATED NORMALLY****
TOTAL RUN TIME: 3 days 21 hours 33 minutes 23 seconds 562 msec
