
                                 *****************
                                 * O   R   C   A *
                                 *****************

                                            #,                                       
                                            ###                                      
                                            ####                                     
                                            #####                                    
                                            ######                                   
                                           ########,                                 
                                     ,,################,,,,,                         
                               ,,#################################,,                 
                          ,,##########################################,,             
                       ,#########################################, ''#####,          
                    ,#############################################,,   '####,        
                  ,##################################################,,,,####,       
                ,###########''''           ''''###############################       
              ,#####''   ,,,,##########,,,,          '''####'''          '####       
            ,##' ,,,,###########################,,,                        '##       
           ' ,,###''''                  '''############,,,                           
         ,,##''                                '''############,,,,        ,,,,,,###''
      ,#''                                            '''#######################'''  
     '                                                          ''''####''''         
             ,#######,   #######,   ,#######,      ##                                
            ,#'     '#,  ##    ##  ,#'     '#,    #''#        ######   ,####,        
            ##       ##  ##   ,#'  ##            #'  '#       #        #'  '#        
            ##       ##  #######   ##           ,######,      #####,   #    #        
            '#,     ,#'  ##    ##  '#,     ,#' ,#      #,         ##   #,  ,#        
             '#######'   ##     ##  '#######'  #'      '#     #####' # '####'        



                  #######################################################
                  #                        -***-                        #
                  #          Department of theory and spectroscopy      #
                  #    Directorship and core code : Frank Neese         #
                  #        Max Planck Institute fuer Kohlenforschung    #
                  #                Kaiser Wilhelm Platz 1               #
                  #                 D-45470 Muelheim/Ruhr               #
                  #                      Germany                        #
                  #                                                     #
                  #                  All rights reserved                #
                  #                        -***-                        #
                  #######################################################


                         Program Version 5.0.4 -  RELEASE  -


 With contributions from (in alphabetic order):
   Daniel Aravena         : Magnetic Suceptibility
   Michael Atanasov       : Ab Initio Ligand Field Theory (pilot matlab implementation)
   Alexander A. Auer      : GIAO ZORA, VPT2 properties, NMR spectrum
   Ute Becker             : Parallelization
   Giovanni Bistoni       : ED, misc. LED, open-shell LED, HFLD
   Martin Brehm           : Molecular dynamics
   Dmytro Bykov           : SCF Hessian
   Vijay G. Chilkuri      : MRCI spin determinant printing, contributions to CSF-ICE
   Dipayan Datta          : RHF DLPNO-CCSD density
   Achintya Kumar Dutta   : EOM-CC, STEOM-CC
   Dmitry Ganyushin       : Spin-Orbit,Spin-Spin,Magnetic field MRCI
   Miquel Garcia          : C-PCM and meta-GGA Hessian, CC/C-PCM, Gaussian charge scheme
   Yang Guo               : DLPNO-NEVPT2, F12-NEVPT2, CIM, IAO-localization
   Andreas Hansen         : Spin unrestricted coupled pair/coupled cluster methods
   Benjamin Helmich-Paris : MC-RPA, TRAH-SCF, COSX integrals
   Lee Huntington         : MR-EOM, pCC
   Robert Izsak           : Overlap fitted RIJCOSX, COSX-SCS-MP3, EOM
   Marcus Kettner         : VPT2
   Christian Kollmar      : KDIIS, OOCD, Brueckner-CCSD(T), CCSD density, CASPT2, CASPT2-K
   Simone Kossmann        : Meta GGA functionals, TD-DFT gradient, OOMP2, MP2 Hessian
   Martin Krupicka        : Initial AUTO-CI
   Lucas Lang             : DCDCAS
   Marvin Lechner         : AUTO-CI (C++ implementation), FIC-MRCC
   Dagmar Lenk            : GEPOL surface, SMD
   Dimitrios Liakos       : Extrapolation schemes; Compound Job, initial MDCI parallelization
   Dimitrios Manganas     : Further ROCIS development; embedding schemes
   Dimitrios Pantazis     : SARC Basis sets
   Anastasios Papadopoulos: AUTO-CI, single reference methods and gradients
   Taras Petrenko         : DFT Hessian,TD-DFT gradient, ASA, ECA, R-Raman, ABS, FL, XAS/XES, NRVS
   Peter Pinski           : DLPNO-MP2, DLPNO-MP2 Gradient
   Christoph Reimann      : Effective Core Potentials
   Marius Retegan         : Local ZFS, SOC
   Christoph Riplinger    : Optimizer, TS searches, QM/MM, DLPNO-CCSD(T), (RO)-DLPNO pert. Triples
   Tobias Risthaus        : Range-separated hybrids, TD-DFT gradient, RPA, STAB
   Michael Roemelt        : Original ROCIS implementation
   Masaaki Saitow         : Open-shell DLPNO-CCSD energy and density
   Barbara Sandhoefer     : DKH picture change effects
   Avijit Sen             : IP-ROCIS
   Kantharuban Sivalingam : CASSCF convergence, NEVPT2, FIC-MRCI
   Bernardo de Souza      : ESD, SOC TD-DFT
   Georgi Stoychev        : AutoAux, RI-MP2 NMR, DLPNO-MP2 response
   Willem Van den Heuvel  : Paramagnetic NMR
   Boris Wezisla          : Elementary symmetry handling
   Frank Wennmohs         : Technical directorship


 We gratefully acknowledge several colleagues who have allowed us to
 interface, adapt or use parts of their codes:
   Stefan Grimme, W. Hujo, H. Kruse, P. Pracht,  : VdW corrections, initial TS optimization,
                  C. Bannwarth, S. Ehlert          DFT functionals, gCP, sTDA/sTD-DF
   Ed Valeev, F. Pavosevic, A. Kumar             : LibInt (2-el integral package), F12 methods
   Garnet Chan, S. Sharma, J. Yang, R. Olivares  : DMRG
   Ulf Ekstrom                                   : XCFun DFT Library
   Mihaly Kallay                                 : mrcc  (arbitrary order and MRCC methods)
   Jiri Pittner, Ondrej Demel                    : Mk-CCSD
   Frank Weinhold                                : gennbo (NPA and NBO analysis)
   Christopher J. Cramer and Donald G. Truhlar   : smd solvation model
   Lars Goerigk                                  : TD-DFT with DH, B97 family of functionals
   V. Asgeirsson, H. Jonsson                     : NEB implementation
   FAccTs GmbH                                   : IRC, NEB, NEB-TS, DLPNO-Multilevel, CI-OPT
                                                   MM, QMMM, 2- and 3-layer-ONIOM, Crystal-QMMM,
                                                   LR-CPCM, SF, NACMEs, symmetry and pop. for TD-DFT,
                                                   nearIR, NL-DFT gradient (VV10), updates on ESD,
                                                   ML-optimized integration grids
   S Lehtola, MJT Oliveira, MAL Marques          : LibXC Library
   Liviu Ungur et al                             : ANISO software


 Your calculation uses the libint2 library for the computation of 2-el integrals
 For citations please refer to: http://libint.valeyev.net

 Your ORCA version has been built with support for libXC version: 5.1.0
 For citations please refer to: https://tddft.org/programs/libxc/

 This ORCA versions uses:
   CBLAS   interface :  Fast vector & matrix operations
   LAPACKE interface :  Fast linear algebra routines
   SCALAPACK package :  Parallel linear algebra routines
   Shared memory     :  Shared parallel matrices
   BLAS/LAPACK       :  OpenBLAS 0.3.15  USE64BITINT DYNAMIC_ARCH NO_AFFINITY Zen SINGLE_THREADED
        Core in use  :  Zen
   Copyright (c) 2011-2014, The OpenBLAS Project


================================================================================

----- Orbital basis set information -----
Your calculation utilizes the basis: def2-TZVP(-f)
   F. Weigend and R. Ahlrichs, Phys. Chem. Chem. Phys. 7, 3297 (2005).

----- AuxJ basis set information -----
Your calculation utilizes the auxiliary basis: def2/J
   F. Weigend, Phys. Chem. Chem. Phys. 8, 1057 (2006).

----- AuxC basis set information -----
Your calculation utilizes the auxiliary basis: def2-TZVP/C
  H-La, Hf-Rn : A. Hellweg, C. Hattig, S. Hofener and W. Klopper, Theor. Chem. Acc. 117, 587 (2007).
        Ce-Lu : J. Chmela and M. E. Harding, Mol. Phys. (2018).

================================================================================
                                        WARNINGS
                       Please study these warnings very carefully!
================================================================================


WARNING: Geometry Optimization
  ===> : Switching off AutoStart
         For restart on a previous wavefunction, please use MOREAD

INFO   : the flag for use of the SHARK integral package has been found!

================================================================================
                                       INPUT FILE
================================================================================
NAME = NMU-H_GS.inp
|  1> ! B3LYP/G OPT Def2-TZVP(-f) Def2-TZVP/C Def2/J RIJCOSX TightSCF CPCM(Water) AllPop SOSCF
|  2> 
|  3> * xyz 1 1
|  4>    C       -6.61196       -1.55331        0.01410
|  5>    C       -6.58484       -2.70820       -0.99969
|  6>    C       -5.50831       -3.72272       -0.58293
|  7>    H       -6.35872       -2.31644       -1.99487
|  8>    H       -7.56288       -3.19257       -1.04605
|  9>    C       -4.17166       -3.04365       -0.31329
| 10>    H       -5.40091       -4.47283       -1.37018
| 11>    H       -5.83208       -4.24293        0.32172
| 12>    C       -4.11836       -1.67807        0.03070
| 13>    N       -5.28372       -0.93194        0.13089
| 14>    H       -6.91823       -1.93414        0.99262
| 15>    H       -7.34576       -0.81177       -0.31437
| 16>    C       -5.27070        0.43200        0.68370
| 17>    C       -4.01646        1.19138        0.22106
| 18>    H       -5.28092        0.37768        1.77617
| 19>    H       -6.15755        0.98149        0.35580
| 20>    C       -2.76186        0.40491        0.63166
| 21>    H       -3.99427        2.19045        0.66223
| 22>    H       -4.03933        1.30669       -0.86559
| 23>    C       -2.87311       -1.06749        0.25490
| 24>    H       -2.62049        0.48208        1.71220
| 25>    H       -1.88802        0.85577        0.15536
| 26>    C       -3.00860       -3.81759       -0.39134
| 27>    C       -1.67126       -1.85098        0.13120
| 28>    C       -1.75710       -3.25432       -0.15836
| 29>    O       -0.46373       -1.30976        0.52903
| 30>    C        0.73254       -1.94084        0.45477
| 31>    C       -0.59433       -4.01289       -0.20925
| 32>    C        0.66012       -3.35536        0.04479
| 33>    O        1.76235       -1.35664        0.72305
| 34>    C        1.83486       -4.17111       -0.12281
| 35>    C        2.71876       -4.40778        0.93493
| 36>    C        2.17534       -4.72730       -1.37131
| 37>    N        3.11574       -5.33885       -1.45327
| 38>    C        3.93981       -5.60628       -0.73561
| 39>    C        3.84181       -5.16624        0.59704
| 40>    H        1.55065       -4.56935       -2.24917
| 41>    H        4.61338       -5.39405        1.32845
| 42>    H        4.79870       -6.18629       -1.06974
| 43>    H        2.56182       -4.00980        1.93461
| 44>    H       -3.08457       -4.87571       -0.63169
| 45>    H       -0.64521       -5.07827       -0.42170
| 46>    H        3.10523       -6.00136       -2.22685
| 47> *
| 48> 
| 49> 
| 50>                          ****END OF INPUT****
================================================================================

                       *****************************
                       * Geometry Optimization Run *
                       *****************************

Geometry optimization settings:
Update method            Update   .... BFGS
Choice of coordinates    CoordSys .... Z-matrix Internals
Initial Hessian          InHess   .... Almoef's Model

Convergence Tolerances:
Energy Change            TolE     ....  5.0000e-06 Eh
Max. Gradient            TolMAXG  ....  3.0000e-04 Eh/bohr
RMS Gradient             TolRMSG  ....  1.0000e-04 Eh/bohr
Max. Displacement        TolMAXD  ....  4.0000e-03 bohr
RMS Displacement         TolRMSD  ....  2.0000e-03 bohr
Strict Convergence                ....  False
------------------------------------------------------------------------------
                        ORCA OPTIMIZATION COORDINATE SETUP
------------------------------------------------------------------------------

The optimization will be done in new redundant internal coordinates
Making redundant internal coordinates   ...  (new redundants) done
Evaluating the initial hessian          ...  (Almloef) done
Evaluating the coordinates              ...  done
Calculating the B-matrix                .... done
Calculating the G-matrix                .... done
Diagonalizing the G-matrix              .... done
Small eigenvalue found = 5.571e-03
Small eigenvalue found = 1.081e-02
Small eigenvalue found = 2.534e-02
The first mode is                       ....  141
The number of degrees of freedom        ....  123

    -----------------------------------------------------------------
                    Redundant Internal Coordinates


    -----------------------------------------------------------------
         Definition                    Initial Value    Approx d2E/dq
    -----------------------------------------------------------------
      1. B(C   1,C   0)                  1.5370         0.364131   
      2. B(C   2,C   1)                  1.5368         0.364314   
      3. B(H   3,C   1)                  1.0932         0.355950   
      4. B(H   4,C   1)                  1.0924         0.356946   
      5. B(C   5,C   2)                  1.5233         0.382869   
      6. B(H   6,C   2)                  1.0927         0.356564   
      7. B(H   7,C   2)                  1.0926         0.356640   
      8. B(C   8,C   5)                  1.4092         0.582144   
      9. B(N   9,C   8)                  1.3874         0.565018   
     10. B(N   9,C   0)                  1.4710         0.415508   
     11. B(H  10,C   0)                  1.0938         0.355146   
     12. B(H  11,C   0)                  1.0937         0.355205   
     13. B(C  12,N   9)                  1.4718         0.414400   
     14. B(C  13,C  12)                  1.5375         0.363463   
     15. B(H  14,C  12)                  1.0939         0.355020   
     16. B(H  15,C  12)                  1.0936         0.355369   
     17. B(C  16,C  13)                  1.5366         0.364622   
     18. B(H  17,C  13)                  1.0924         0.356983   
     19. B(H  18,C  13)                  1.0930         0.356166   
     20. B(C  19,C  16)                  1.5239         0.382034   
     21. B(C  19,C   8)                  1.4049         0.591534   
     22. B(H  20,C  16)                  1.0925         0.356837   
     23. B(H  21,C  16)                  1.0926         0.356702   
     24. B(C  22,C   5)                  1.3992         0.604015   
     25. B(C  23,C  19)                  1.4400         0.519955   
     26. B(C  24,C  23)                  1.4355         0.528680   
     27. B(C  24,C  22)                  1.3921         0.620107   
     28. B(O  25,C  23)                  1.3818         0.576753   
     29. B(C  26,O  25)                  1.3546         0.637403   
     30. B(C  27,C  24)                  1.3893         0.626490   
     31. B(C  28,C  26)                  1.4745         0.458036   
     32. B(C  28,C  27)                  1.4389         0.521999   
     33. B(O  29,C  26)                  1.2140         1.068286   
     34. B(C  30,C  28)                  1.4400         0.519988   
     35. B(C  31,C  30)                  1.3986         0.605347   
     36. B(C  32,C  30)                  1.4086         0.583628   
     37. B(N  33,C  32)                  1.1248         1.482739   
     38. B(C  34,N  33)                  1.1250         1.481328   
     39. B(C  35,C  34)                  1.4068         0.587318   
     40. B(C  35,C  31)                  1.3967         0.609685   
     41. B(H  36,C  32)                  1.0890         0.361484   
     42. B(H  37,C  35)                  1.0873         0.363716   
     43. B(H  38,C  34)                  1.0889         0.361532   
     44. B(H  39,C  31)                  1.0874         0.363593   
     45. B(H  40,C  22)                  1.0877         0.363115   
     46. B(H  41,C  27)                  1.0875         0.363360   
     47. B(H  42,N  33)                  1.0186         0.419319   
     48. A(C   1,C   0,H  10)          109.4762         0.322227   
     49. A(H  10,C   0,H  11)          108.4741         0.289585   
     50. A(C   1,C   0,H  11)          108.8562         0.322235   
     51. A(C   1,C   0,N   9)          110.7218         0.366114   
     52. A(N   9,C   0,H  11)          110.0748         0.327331   
     53. A(N   9,C   0,H  10)          109.2006         0.327322   
     54. A(C   2,C   1,H   3)          109.7890         0.322372   
     55. A(C   0,C   1,H   3)          109.5634         0.322346   
     56. A(H   3,C   1,H   4)          107.7862         0.289910   
     57. A(C   2,C   1,H   4)          110.2404         0.322520   
     58. A(C   0,C   1,H   4)          110.2044         0.322494   
     59. A(C   0,C   1,C   2)          109.2396         0.360221   
     60. A(C   5,C   2,H   7)          109.0079         0.325115   
     61. A(C   1,C   2,C   5)          111.6153         0.363319   
     62. A(C   1,C   2,H   7)          109.3449         0.322475   
     63. A(C   5,C   2,H   6)          110.3228         0.325103   
     64. A(C   1,C   2,H   6)          109.0652         0.322464   
     65. A(H   6,C   2,H   7)          107.3859         0.289950   
     66. A(C   2,C   5,C   8)          120.5551         0.394019   
     67. A(C   2,C   5,C  22)          118.2241         0.396576   
     68. A(C   8,C   5,C  22)          121.2093         0.427175   
     69. A(C   5,C   8,N   9)          120.4638         0.419364   
     70. A(N   9,C   8,C  19)          119.9516         0.420563   
     71. A(C   5,C   8,C  19)          119.5788         0.425581   
     72. A(C   0,N   9,C   8)          121.7041         0.392569   
     73. A(C   8,N   9,C  12)          121.2044         0.392385   
     74. A(C   0,N   9,C  12)          115.4208         0.371997   
     75. A(H  14,C  12,H  15)          108.4712         0.289590   
     76. A(C  13,C  12,H  15)          108.8541         0.322163   
     77. A(N   9,C  12,H  15)          110.2338         0.327212   
     78. A(C  13,C  12,H  14)          109.4312         0.322111   
     79. A(N   9,C  12,H  14)          109.2097         0.327159   
     80. A(N   9,C  12,C  13)          110.6049         0.365832   
     81. A(C  12,C  13,H  17)          110.2902         0.322402   
     82. A(C  12,C  13,C  16)          109.4426         0.360160   
     83. A(H  17,C  13,H  18)          107.7858         0.289942   
     84. A(C  16,C  13,H  18)          109.6786         0.322449   
     85. A(C  12,C  13,H  18)          109.5241         0.322281   
     86. A(C  16,C  13,H  17)          110.0967         0.322570   
     87. A(H  20,C  16,H  21)          107.3694         0.289992   
     88. A(C  19,C  16,H  21)          110.4456         0.325007   
     89. A(C  13,C  16,H  21)          108.9848         0.322529   
     90. A(C  13,C  16,H  20)          109.4992         0.322549   
     91. A(C  13,C  16,C  19)          111.6451         0.363236   
     92. A(C  19,C  16,H  20)          108.7978         0.325028   
     93. A(C  16,C  19,C  23)          119.0786         0.386172   
     94. A(C   8,C  19,C  23)          119.3144         0.417083   
     95. A(C   8,C  19,C  16)          121.6066         0.394975   
     96. A(C   5,C  22,C  24)          120.9408         0.432045   
     97. A(C   5,C  22,H  40)          119.4945         0.351849   
     98. A(C  24,C  22,H  40)          119.5637         0.353418   
     99. A(C  24,C  23,O  25)          119.5545         0.413746   
    100. A(C  19,C  23,O  25)          119.4408         0.412525   
    101. A(C  19,C  23,C  24)          119.9557         0.408847   
    102. A(C  23,C  24,C  27)          119.4156         0.422629   
    103. A(C  22,C  24,C  27)          121.6947         0.434894   
    104. A(C  22,C  24,C  23)          118.8879         0.421856   
    105. A(C  23,O  25,C  26)          124.9951         0.425000   
    106. A(C  28,C  26,O  29)          124.3850         0.450439   
    107. A(O  25,C  26,O  29)          120.8534         0.475304   
    108. A(O  25,C  26,C  28)          114.7591         0.410568   
    109. A(C  24,C  27,C  28)          118.2739         0.421670   
    110. A(C  28,C  27,H  41)          121.5281         0.343348   
    111. A(C  24,C  27,H  41)          120.1916         0.354072   
    112. A(C  27,C  28,C  30)          115.5815         0.407932   
    113. A(C  26,C  28,C  30)          122.3944         0.398634   
    114. A(C  26,C  28,C  27)          122.0237         0.398905   
    115. A(C  31,C  30,C  32)          116.7925         0.427539   
    116. A(C  28,C  30,C  32)          121.6046         0.416090   
    117. A(C  28,C  30,C  31)          121.5614         0.418807   
    118. A(C  35,C  31,H  39)          122.4951         0.352484   
    119. A(C  30,C  31,H  39)          122.8295         0.352058   
    120. A(C  30,C  31,C  35)          114.6520         0.430902   
    121. A(N  33,C  32,H  36)          119.9839         0.408118   
    122. A(C  30,C  32,H  36)          121.2387         0.349549   
    123. A(C  30,C  32,N  33)          118.7762         0.500224   
    124. A(C  34,N  33,H  42)          109.7202         0.415103   
    125. A(C  32,N  33,H  42)          113.6016         0.415174   
    126. A(C  32,N  33,C  34)          134.0437         0.592556   
    127. A(C  35,C  34,H  38)          120.8114         0.349928   
    128. A(N  33,C  34,H  38)          120.5732         0.408058   
    129. A(N  33,C  34,C  35)          118.6133         0.500723   
    130. A(C  34,C  35,H  37)          121.4836         0.350284   
    131. A(C  31,C  35,H  37)          121.4430         0.352504   
    132. A(C  31,C  35,C  34)          117.0675         0.428570   
    133. D(H   4,C   1,C   0,N   9)    177.4175         0.010621   
    134. D(H   4,C   1,C   0,H  11)    -61.4514         0.010621   
    135. D(H   3,C   1,C   0,H  10)    175.4084         0.010621   
    136. D(C   2,C   1,C   0,H  11)    177.2906         0.010621   
    137. D(H   3,C   1,C   0,H  11)     56.9872         0.010621   
    138. D(C   2,C   1,C   0,N   9)     56.1595         0.010621   
    139. D(H   3,C   1,C   0,N   9)    -64.1440         0.010621   
    140. D(H   4,C   1,C   0,H  10)     56.9698         0.010621   
    141. D(C   2,C   1,C   0,H  10)    -64.2882         0.010621   
    142. D(H   6,C   2,C   1,C   0)   -172.7130         0.010631   
    143. D(C   5,C   2,C   1,H   4)   -171.7949         0.010631   
    144. D(C   5,C   2,C   1,C   0)    -50.5588         0.010631   
    145. D(H   7,C   2,C   1,H   4)    -51.1040         0.010631   
    146. D(H   6,C   2,C   1,H   3)    -52.5480         0.010631   
    147. D(C   5,C   2,C   1,H   3)     69.6063         0.010631   
    148. D(H   7,C   2,C   1,C   0)     70.1321         0.010631   
    149. D(H   7,C   2,C   1,H   3)   -169.7029         0.010631   
    150. D(H   6,C   2,C   1,H   4)     66.0508         0.010631   
    151. D(C  22,C   5,C   2,H   7)     81.3784         0.010929   
    152. D(C  22,C   5,C   2,H   6)    -36.3060         0.010929   
    153. D(C  22,C   5,C   2,C   1)   -157.7340         0.010929   
    154. D(C   8,C   5,C   2,H   7)    -97.4018         0.010929   
    155. D(C   8,C   5,C   2,H   6)    144.9138         0.010929   
    156. D(C   8,C   5,C   2,C   1)     23.4858         0.010929   
    157. D(C  19,C   8,C   5,C  22)      2.2330         0.023291   
    158. D(C  19,C   8,C   5,C   2)   -179.0237         0.023291   
    159. D(N   9,C   8,C   5,C   2)      0.0982         0.023291   
    160. D(N   9,C   8,C   5,C  22)   -178.6451         0.023291   
    161. D(C   8,N   9,C   0,H  10)     85.6975         0.014724   
    162. D(C   8,N   9,C   0,C   1)    -34.9143         0.014724   
    163. D(C   8,N   9,C   0,H  11)   -155.3220         0.014724   
    164. D(C  12,N   9,C   8,C  19)    -10.2711         0.025522   
    165. D(C  12,N   9,C   8,C   5)    170.6103         0.025522   
    166. D(C   0,N   9,C   8,C  19)   -174.8643         0.025522   
    167. D(C   0,N   9,C   8,C   5)      6.0170         0.025522   
    168. D(C  12,N   9,C   0,H  11)     39.2498         0.014724   
    169. D(C  12,N   9,C   0,H  10)    -79.7307         0.014724   
    170. D(C  12,N   9,C   0,C   1)    159.6575         0.014724   
    171. D(H  15,C  12,N   9,C   8)    159.2651         0.014646   
    172. D(H  15,C  12,N   9,C   0)    -35.2275         0.014646   
    173. D(H  14,C  12,N   9,C   8)    -81.6566         0.014646   
    174. D(H  14,C  12,N   9,C   0)     83.8508         0.014646   
    175. D(C  13,C  12,N   9,C   8)     38.8318         0.014646   
    176. D(C  13,C  12,N   9,C   0)   -155.6607         0.014646   
    177. D(H  18,C  13,C  12,H  15)    -57.7403         0.010585   
    178. D(H  18,C  13,C  12,H  14)   -176.1306         0.010585   
    179. D(H  18,C  13,C  12,N   9)     63.5131         0.010585   
    180. D(H  17,C  13,C  12,H  15)     60.7255         0.010585   
    181. D(H  17,C  13,C  12,H  14)    -57.6648         0.010585   
    182. D(H  17,C  13,C  12,N   9)   -178.0211         0.010585   
    183. D(C  16,C  13,C  12,H  15)   -178.0094         0.010585   
    184. D(C  16,C  13,C  12,H  14)     63.6003         0.010585   
    185. D(C  16,C  13,C  12,N   9)    -56.7559         0.010585   
    186. D(H  21,C  16,C  13,H  18)     50.2150         0.010648   
    187. D(H  21,C  16,C  13,H  17)    -68.2283         0.010648   
    188. D(H  21,C  16,C  13,C  12)    170.3896         0.010648   
    189. D(H  20,C  16,C  13,H  18)    167.3917         0.010648   
    190. D(H  20,C  16,C  13,H  17)     48.9483         0.010648   
    191. D(H  20,C  16,C  13,C  12)    -72.4337         0.010648   
    192. D(C  19,C  16,C  13,H  18)    -72.0584         0.010648   
    193. D(C  19,C  16,C  13,H  17)    169.4982         0.010648   
    194. D(C  19,C  16,C  13,C  12)     48.1161         0.010648   
    195. D(C  16,C  19,C   8,C   5)   -179.8819         0.024086   
    196. D(C  23,C  19,C  16,H  21)     37.4373         0.010884   
    197. D(C  23,C  19,C  16,C  13)    158.8682         0.010884   
    198. D(C   8,C  19,C  16,H  21)   -142.7966         0.010884   
    199. D(C   8,C  19,C  16,H  20)     99.5935         0.010884   
    200. D(C   8,C  19,C  16,C  13)    -21.3657         0.010884   
    201. D(C  23,C  19,C   8,N   9)   -179.2428         0.024086   
    202. D(C  23,C  19,C  16,H  20)    -80.1726         0.010884   
    203. D(C  23,C  19,C   8,C   5)     -0.1163         0.024086   
    204. D(C  16,C  19,C   8,N   9)      0.9917         0.024086   
    205. D(H  40,C  22,C   5,C   8)    178.2697         0.025169   
    206. D(H  40,C  22,C   5,C   2)     -0.5022         0.025169   
    207. D(C  24,C  22,C   5,C   8)     -1.3617         0.025169   
    208. D(C  24,C  22,C   5,C   2)    179.8665         0.025169   
    209. D(O  25,C  23,C  19,C  16)      8.7142         0.018437   
    210. D(O  25,C  23,C  19,C   8)   -171.0573         0.018437   
    211. D(C  24,C  23,C  19,C  16)    176.9523         0.018437   
    212. D(C  24,C  23,C  19,C   8)     -2.8192         0.018437   
    213. D(C  27,C  24,C  23,O  25)     -8.5791         0.019076   
    214. D(C  27,C  24,C  23,C  19)   -176.8037         0.019076   
    215. D(C  22,C  24,C  23,O  25)    171.9003         0.019076   
    216. D(C  22,C  24,C  23,C  19)      3.6756         0.019076   
    217. D(C  27,C  24,C  22,H  40)     -0.7474         0.026609   
    218. D(C  27,C  24,C  22,C   5)    178.8837         0.026609   
    219. D(C  23,C  24,C  22,H  40)    178.7619         0.026609   
    220. D(C  23,C  24,C  22,C   5)     -1.6071         0.026609   
    221. D(C  26,O  25,C  23,C  24)     12.1714         0.024177   
    222. D(C  26,O  25,C  23,C  19)   -179.5429         0.024177   
    223. D(O  29,C  26,O  25,C  23)    173.9136         0.029932   
    224. D(C  28,C  26,O  25,C  23)     -6.6411         0.029932   
    225. D(H  41,C  27,C  24,C  23)    179.6351         0.027194   
    226. D(H  41,C  27,C  24,C  22)     -0.8581         0.027194   
    227. D(C  28,C  27,C  24,C  23)      0.5430         0.027194   
    228. D(C  28,C  27,C  24,C  22)   -179.9502         0.027194   
    229. D(C  30,C  28,C  27,H  41)      5.4771         0.018586   
    230. D(C  30,C  28,C  27,C  24)   -175.4435         0.018586   
    231. D(C  26,C  28,C  27,H  41)   -174.2860         0.018586   
    232. D(C  26,C  28,C  27,C  24)      4.7934         0.018586   
    233. D(C  30,C  28,C  26,O  29)     -2.3268         0.014293   
    234. D(C  30,C  28,C  26,O  25)    178.2502         0.014293   
    235. D(C  27,C  28,C  26,O  29)    177.4201         0.014293   
    236. D(C  27,C  28,C  26,O  25)     -2.0028         0.014293   
    237. D(C  32,C  30,C  28,C  27)     62.6881         0.018440   
    238. D(C  32,C  30,C  28,C  26)   -117.5497         0.018440   
    239. D(C  31,C  30,C  28,C  27)   -119.7310         0.018440   
    240. D(C  31,C  30,C  28,C  26)     60.0311         0.018440   
    241. D(H  39,C  31,C  30,C  32)    178.8262         0.025286   
    242. D(H  39,C  31,C  30,C  28)      1.1343         0.025286   
    243. D(C  35,C  31,C  30,C  32)      0.5460         0.025286   
    244. D(C  35,C  31,C  30,C  28)   -177.1459         0.025286   
    245. D(H  36,C  32,C  30,C  31)   -178.6026         0.023416   
    246. D(H  36,C  32,C  30,C  28)     -0.9118         0.023416   
    247. D(N  33,C  32,C  30,C  31)      1.0020         0.023416   
    248. D(N  33,C  32,C  30,C  28)    178.6929         0.023416   
    249. D(H  42,N  33,C  32,H  36)    -24.2066         0.230295   
    250. D(H  42,N  33,C  32,C  30)    156.1837         0.230295   
    251. D(C  34,N  33,C  32,H  36)    176.5893         0.230295   
    252. D(C  34,N  33,C  32,C  30)     -3.0205         0.230295   
    253. D(H  38,C  34,N  33,H  42)     23.5483         0.229765   
    254. D(H  38,C  34,N  33,C  32)   -176.6708         0.229765   
    255. D(C  35,C  34,N  33,H  42)   -156.9789         0.229765   
    256. D(C  35,C  34,N  33,C  32)      2.8020         0.229765   
    257. D(H  37,C  35,C  31,C  30)    178.3957         0.025671   
    258. D(C  34,C  35,C  31,H  39)   -179.0204         0.025671   
    259. D(C  34,C  35,C  31,C  30)     -0.7338         0.025671   
    260. D(H  37,C  35,C  34,H  38)     -0.2447         0.023727   
    261. D(H  37,C  35,C  34,N  33)   -179.7162         0.023727   
    262. D(C  31,C  35,C  34,H  38)    178.8844         0.023727   
    263. D(C  31,C  35,C  34,N  33)     -0.5871         0.023727   
    264. D(H  37,C  35,C  31,H  39)      0.1090         0.025671   
    -----------------------------------------------------------------

Number of atoms                         .... 43
Number of degrees of freedom            .... 264

Time needed for optimization step       :    11.84 sec

         *************************************************************
         *                GEOMETRY OPTIMIZATION CYCLE   1            *
         *************************************************************
---------------------------------
CARTESIAN COORDINATES (ANGSTROEM)
---------------------------------
  C     -6.611960   -1.553310    0.014100
  C     -6.584840   -2.708200   -0.999690
  C     -5.508310   -3.722720   -0.582930
  H     -6.358720   -2.316440   -1.994870
  H     -7.562880   -3.192570   -1.046050
  C     -4.171660   -3.043650   -0.313290
  H     -5.400910   -4.472830   -1.370180
  H     -5.832080   -4.242930    0.321720
  C     -4.118360   -1.678070    0.030700
  N     -5.283720   -0.931940    0.130890
  H     -6.918230   -1.934140    0.992620
  H     -7.345760   -0.811770   -0.314370
  C     -5.270700    0.432000    0.683700
  C     -4.016460    1.191380    0.221060
  H     -5.280920    0.377680    1.776170
  H     -6.157550    0.981490    0.355800
  C     -2.761860    0.404910    0.631660
  H     -3.994270    2.190450    0.662230
  H     -4.039330    1.306690   -0.865590
  C     -2.873110   -1.067490    0.254900
  H     -2.620490    0.482080    1.712200
  H     -1.888020    0.855770    0.155360
  C     -3.008600   -3.817590   -0.391340
  C     -1.671260   -1.850980    0.131200
  C     -1.757100   -3.254320   -0.158360
  O     -0.463730   -1.309760    0.529030
  C      0.732540   -1.940840    0.454770
  C     -0.594330   -4.012890   -0.209250
  C      0.660120   -3.355360    0.044790
  O      1.762350   -1.356640    0.723050
  C      1.834860   -4.171110   -0.122810
  C      2.718760   -4.407780    0.934930
  C      2.175340   -4.727300   -1.371310
  N      3.115740   -5.338850   -1.453270
  C      3.939810   -5.606280   -0.735610
  C      3.841810   -5.166240    0.597040
  H      1.550650   -4.569350   -2.249170
  H      4.613380   -5.394050    1.328450
  H      4.798700   -6.186290   -1.069740
  H      2.561820   -4.009800    1.934610
  H     -3.084570   -4.875710   -0.631690
  H     -0.645210   -5.078270   -0.421700
  H      3.105230   -6.001360   -2.226850

----------------------------
CARTESIAN COORDINATES (A.U.)
----------------------------
  NO LB      ZA    FRAG     MASS         X           Y           Z
   0 C     6.0000    0    12.011  -12.494794   -2.935331    0.026645
   1 C     6.0000    0    12.011  -12.443544   -5.117756   -1.889140
   2 C     6.0000    0    12.011  -10.409197   -7.034921   -1.101578
   3 H     1.0000    0     1.008  -12.016239   -4.377437   -3.769758
   4 H     1.0000    0     1.008  -14.291772   -6.033083   -1.976748
   5 C     6.0000    0    12.011   -7.883295   -5.751665   -0.592032
   6 H     1.0000    0     1.008  -10.206241   -8.452424   -2.589265
   7 H     1.0000    0     1.008  -11.021034   -8.017976    0.607963
   8 C     6.0000    0    12.011   -7.782573   -3.171093    0.058015
   9 N     7.0000    0    14.007   -9.984784   -1.761111    0.247346
  10 H     1.0000    0     1.008  -13.073560   -3.654995    1.875780
  11 H     1.0000    0     1.008  -13.881475   -1.534023   -0.594073
  12 C     6.0000    0    12.011   -9.960180    0.816362    1.292006
  13 C     6.0000    0    12.011   -7.590009    2.251382    0.417743
  14 H     1.0000    0     1.008   -9.979493    0.713712    3.356475
  15 H     1.0000    0     1.008  -11.636083    1.854747    0.672365
  16 C     6.0000    0    12.011   -5.219159    0.765169    1.193664
  17 H     1.0000    0     1.008   -7.548076    4.139351    1.251433
  18 H     1.0000    0     1.008   -7.633227    2.469286   -1.635728
  19 C     6.0000    0    12.011   -5.429391   -2.017264    0.481691
  20 H     1.0000    0     1.008   -4.952008    0.910999    3.235589
  21 H     1.0000    0     1.008   -3.567841    1.617171    0.293588
  22 C     6.0000    0    12.011   -5.685430   -7.214200   -0.739525
  23 C     6.0000    0    12.011   -3.158224   -3.497845    0.247932
  24 C     6.0000    0    12.011   -3.320438   -6.149774   -0.299257
  25 O     8.0000    0    15.999   -0.876323   -2.475088    0.999722
  26 C     6.0000    0    12.011    1.384300   -3.667656    0.859391
  27 C     6.0000    0    12.011   -1.123121   -7.583263   -0.395425
  28 C     6.0000    0    12.011    1.247446   -6.340711    0.084641
  29 O     8.0000    0    15.999    3.330359   -2.563678    1.366366
  30 C     6.0000    0    12.011    3.467383   -7.882256   -0.232077
  31 C     6.0000    0    12.011    5.137712   -8.329497    1.766762
  32 C     6.0000    0    12.011    4.110797   -8.933302   -2.591400
  33 N     7.0000    0    14.007    5.887895  -10.088964   -2.746282
  34 C     6.0000    0    12.011    7.445162  -10.594334   -1.390101
  35 C     6.0000    0    12.011    7.259969   -9.762779    1.128242
  36 H     1.0000    0     1.008    2.930304   -8.634820   -4.250315
  37 H     1.0000    0     1.008    8.718025  -10.193277    2.510407
  38 H     1.0000    0     1.008    9.068229  -11.690394   -2.021516
  39 H     1.0000    0     1.008    4.841138   -7.577424    3.655883
  40 H     1.0000    0     1.008   -5.828993   -9.213757   -1.193721
  41 H     1.0000    0     1.008   -1.219270   -9.596540   -0.796898
  42 H     1.0000    0     1.008    5.868034  -11.340927   -4.208137

--------------------------------
INTERNAL COORDINATES (ANGSTROEM)
--------------------------------
 C      0   0   0     0.000000000000     0.00000000     0.00000000
 C      1   0   0     1.536969931586     0.00000000     0.00000000
 C      2   1   0     1.536833292488   109.23962357     0.00000000
 H      2   1   3     1.093155699981   109.56337442   239.69657965
 H      2   1   3     1.092394520354   110.20440026   121.25803267
 C      3   2   1     1.523310545161   111.61531906   309.44124253
 H      3   2   1     1.092685835270   109.06524895   187.28695707
 H      3   2   1     1.092628518528   109.34489002    70.13213831
 C      6   3   2     1.409247581690   120.55508181    23.48578362
 N      9   6   3     1.387375919713   120.46375495     0.09823988
 H      1   2   3     1.093770630525   109.47624136   295.71179123
 H      1   2   3     1.093725995165   108.85624259   177.29058324
 C     10   9   6     1.471767896137   121.20435210   170.61030046
 C     13  10   9     1.537469262002   110.60487997    38.83183507
 H     13  10   9     1.093867364766   109.20970184   278.34335091
 H     13  10   9     1.093599832023   110.23384105   159.26506509
 C     14  13  10     1.536602935341   109.44258440   303.24405964
 H     14  13  10     1.092366344181   110.29021912   181.97894846
 H     14  13  10     1.092990235775   109.52406837    63.51313964
 C      9   6   3     1.404891860216   119.57883837   180.97631889
 H     17  14  13     1.092477632448   109.49918945   287.56627151
 H     17  14  13     1.092580786578   108.98479573   170.38962588
 C      6   3   2     1.399208165249   118.22413331   202.26597468
 C     20   9   6     1.440000587708   119.31442292   359.88365538
 C     23   6   3     1.392050653999   120.94076201   179.86648242
 O     24  20   9     1.381780191709   119.44083204   188.94274552
 C     26  24  20     1.354562079382   124.99510023   180.45705646
 C     25  23   6     1.389263225562   121.69470484   178.88366863
 C     28  25  23     1.438932529690   118.27387352   180.04976787
 O     27  26  24     1.213990294236   120.85336398   173.91358717
 C     29  28  25     1.439983295077   115.58151086   184.55650242
 C     31  29  28     1.398608525106   121.56144883   240.26897826
 C     31  29  28     1.408554648035   121.60457663    62.68810144
 N     33  31  29     1.124750196310   118.77621181   178.69288304
 C     34  33  31     1.125009353472   134.04368520   356.97953126
 C     32  31  29     1.396664786626   114.65198896   182.85407558
 H     33  31  29     1.088955452808   121.23870557   359.08823874
 H     36  32  31     1.087280207260   121.44301285   178.39566704
 H     35  34  33     1.088919872672   120.57322404   183.32922111
 H     32  31  29     1.087372220723   122.82950210     1.13430547
 H     23   6   3     1.087730434345   119.49452588   359.49782867
 H     28  25  23     1.087546928321   120.19157019   359.14187129
 H     34  33  31     1.018555828907   113.60157168   156.18369192

---------------------------
INTERNAL COORDINATES (A.U.)
---------------------------
 C      0   0   0     0.000000000000     0.00000000     0.00000000
 C      1   0   0     2.904452246770     0.00000000     0.00000000
 C      2   1   0     2.904194036295   109.23962357     0.00000000
 H      2   1   3     2.065764894698   109.56337442   239.69657965
 H      2   1   3     2.064326473666   110.20440026   121.25803267
 C      3   2   1     2.878639747269   111.61531906   309.44124253
 H      3   2   1     2.064876979076   109.06524895   187.28695707
 H      3   2   1     2.064768666129   109.34489002    70.13213831
 C      6   3   2     2.663091984286   120.55508181    23.48578362
 N      9   6   3     2.621760533055   120.46375495     0.09823988
 H      1   2   3     2.066926945019   109.47624136   295.71179123
 H      1   2   3     2.066842596413   108.85624259   177.29058324
 C     10   9   6     2.781238256397   121.20435210   170.61030046
 C     13  10   9     2.905395844505   110.60487997    38.83183507
 H     13  10   9     2.067109746242   109.20970184   278.34335091
 H     13  10   9     2.066604182625   110.23384105   159.26506509
 C     14  13  10     2.903758724375   109.44258440   303.24405964
 H     14  13  10     2.064273228415   110.29021912   181.97894846
 H     14  13  10     2.065452212665   109.52406837    63.51313964
 C      9   6   3     2.654860863583   119.57883837   180.97631889
 H     17  14  13     2.064483532762   109.49918945   287.56627151
 H     17  14  13     2.064678465817   108.98479573   170.38962588
 C      6   3   2     2.644120236667   118.22413331   202.26597468
 C     20   9   6     2.721206743454   119.31442292   359.88365538
 C     23   6   3     2.630594500605   120.94076201   179.86648242
 O     24  20   9     2.611186139608   119.44083204   188.94274552
 C     26  24  20     2.559751361427   124.99510023   180.45705646
 C     25  23   6     2.625327024241   121.69470484   178.88366863
 C     28  25  23     2.719188406305   118.27387352   180.04976787
 O     27  26  24     2.294109185345   120.85336398   173.91358717
 C     29  28  25     2.721174065117   115.58151086   184.55650242
 C     31  29  28     2.642987081018   121.56144883   240.26897826
 C     31  29  28     2.661782529447   121.60457663    62.68810144
 N     33  31  29     2.125469840101   118.77621181   178.69288304
 C     34  33  31     2.125959576162   134.04368520   356.97953126
 C     32  31  29     2.639313947614   114.65198896   182.85407558
 H     33  31  29     2.057827577847   121.23870557   359.08823874
 H     36  32  31     2.054661822555   121.44301285   178.39566704
 H     35  34  33     2.057760341134   120.57322404   183.32922111
 H     32  31  29     2.054835702800   122.82950210     1.13430547
 H     23   6   3     2.055512628443   119.49452588   359.49782867
 H     28  25  23     2.055165852314   120.19157019   359.14187129
 H     34  33  31     1.924791568743   113.60157168   156.18369192

---------------------
BASIS SET INFORMATION
---------------------
There are 4 groups of distinct atoms

 Group   1 Type C   : 11s6p2d contracted to 5s3p2d pattern {62111/411/11}
 Group   2 Type H   : 5s1p contracted to 3s1p pattern {311/1}
 Group   3 Type N   : 11s6p2d contracted to 5s3p2d pattern {62111/411/11}
 Group   4 Type O   : 11s6p2d contracted to 5s3p2d pattern {62111/411/11}

Atom   0C    basis set group =>   1
Atom   1C    basis set group =>   1
Atom   2C    basis set group =>   1
Atom   3H    basis set group =>   2
Atom   4H    basis set group =>   2
Atom   5C    basis set group =>   1
Atom   6H    basis set group =>   2
Atom   7H    basis set group =>   2
Atom   8C    basis set group =>   1
Atom   9N    basis set group =>   3
Atom  10H    basis set group =>   2
Atom  11H    basis set group =>   2
Atom  12C    basis set group =>   1
Atom  13C    basis set group =>   1
Atom  14H    basis set group =>   2
Atom  15H    basis set group =>   2
Atom  16C    basis set group =>   1
Atom  17H    basis set group =>   2
Atom  18H    basis set group =>   2
Atom  19C    basis set group =>   1
Atom  20H    basis set group =>   2
Atom  21H    basis set group =>   2
Atom  22C    basis set group =>   1
Atom  23C    basis set group =>   1
Atom  24C    basis set group =>   1
Atom  25O    basis set group =>   4
Atom  26C    basis set group =>   1
Atom  27C    basis set group =>   1
Atom  28C    basis set group =>   1
Atom  29O    basis set group =>   4
Atom  30C    basis set group =>   1
Atom  31C    basis set group =>   1
Atom  32C    basis set group =>   1
Atom  33N    basis set group =>   3
Atom  34C    basis set group =>   1
Atom  35C    basis set group =>   1
Atom  36H    basis set group =>   2
Atom  37H    basis set group =>   2
Atom  38H    basis set group =>   2
Atom  39H    basis set group =>   2
Atom  40H    basis set group =>   2
Atom  41H    basis set group =>   2
Atom  42H    basis set group =>   2
---------------------------------
AUXILIARY/J BASIS SET INFORMATION
---------------------------------
There are 4 groups of distinct atoms

 Group   1 Type C   : 12s5p4d2f1g contracted to 6s4p3d1f1g pattern {711111/2111/211/2/1}
 Group   2 Type H   : 5s2p1d contracted to 3s1p1d pattern {311/2/1}
 Group   3 Type N   : 12s5p4d2f1g contracted to 6s4p3d1f1g pattern {711111/2111/211/2/1}
 Group   4 Type O   : 12s5p4d2f1g contracted to 6s4p3d1f1g pattern {711111/2111/211/2/1}

Atom   0C    basis set group =>   1
Atom   1C    basis set group =>   1
Atom   2C    basis set group =>   1
Atom   3H    basis set group =>   2
Atom   4H    basis set group =>   2
Atom   5C    basis set group =>   1
Atom   6H    basis set group =>   2
Atom   7H    basis set group =>   2
Atom   8C    basis set group =>   1
Atom   9N    basis set group =>   3
Atom  10H    basis set group =>   2
Atom  11H    basis set group =>   2
Atom  12C    basis set group =>   1
Atom  13C    basis set group =>   1
Atom  14H    basis set group =>   2
Atom  15H    basis set group =>   2
Atom  16C    basis set group =>   1
Atom  17H    basis set group =>   2
Atom  18H    basis set group =>   2
Atom  19C    basis set group =>   1
Atom  20H    basis set group =>   2
Atom  21H    basis set group =>   2
Atom  22C    basis set group =>   1
Atom  23C    basis set group =>   1
Atom  24C    basis set group =>   1
Atom  25O    basis set group =>   4
Atom  26C    basis set group =>   1
Atom  27C    basis set group =>   1
Atom  28C    basis set group =>   1
Atom  29O    basis set group =>   4
Atom  30C    basis set group =>   1
Atom  31C    basis set group =>   1
Atom  32C    basis set group =>   1
Atom  33N    basis set group =>   3
Atom  34C    basis set group =>   1
Atom  35C    basis set group =>   1
Atom  36H    basis set group =>   2
Atom  37H    basis set group =>   2
Atom  38H    basis set group =>   2
Atom  39H    basis set group =>   2
Atom  40H    basis set group =>   2
Atom  41H    basis set group =>   2
Atom  42H    basis set group =>   2
---------------------------------
AUXILIARY/C BASIS SET INFORMATION
---------------------------------
There are 4 groups of distinct atoms

 Group   1 Type C   : 8s6p5d3f1g contracted to 8s6p4d3f1g pattern {11111111/111111/2111/111/1}
 Group   2 Type H   : 4s3p2d contracted to 4s2p1d pattern {1111/21/2}
 Group   3 Type N   : 8s6p5d3f1g contracted to 8s6p4d3f1g pattern {11111111/111111/2111/111/1}
 Group   4 Type O   : 8s6p5d3f1g contracted to 8s6p4d3f1g pattern {11111111/111111/2111/111/1}

Atom   0C    basis set group =>   1
Atom   1C    basis set group =>   1
Atom   2C    basis set group =>   1
Atom   3H    basis set group =>   2
Atom   4H    basis set group =>   2
Atom   5C    basis set group =>   1
Atom   6H    basis set group =>   2
Atom   7H    basis set group =>   2
Atom   8C    basis set group =>   1
Atom   9N    basis set group =>   3
Atom  10H    basis set group =>   2
Atom  11H    basis set group =>   2
Atom  12C    basis set group =>   1
Atom  13C    basis set group =>   1
Atom  14H    basis set group =>   2
Atom  15H    basis set group =>   2
Atom  16C    basis set group =>   1
Atom  17H    basis set group =>   2
Atom  18H    basis set group =>   2
Atom  19C    basis set group =>   1
Atom  20H    basis set group =>   2
Atom  21H    basis set group =>   2
Atom  22C    basis set group =>   1
Atom  23C    basis set group =>   1
Atom  24C    basis set group =>   1
Atom  25O    basis set group =>   4
Atom  26C    basis set group =>   1
Atom  27C    basis set group =>   1
Atom  28C    basis set group =>   1
Atom  29O    basis set group =>   4
Atom  30C    basis set group =>   1
Atom  31C    basis set group =>   1
Atom  32C    basis set group =>   1
Atom  33N    basis set group =>   3
Atom  34C    basis set group =>   1
Atom  35C    basis set group =>   1
Atom  36H    basis set group =>   2
Atom  37H    basis set group =>   2
Atom  38H    basis set group =>   2
Atom  39H    basis set group =>   2
Atom  40H    basis set group =>   2
Atom  41H    basis set group =>   2
Atom  42H    basis set group =>   2
------------------------------------------------------------------------------
                           ORCA GTO INTEGRAL CALCULATION
                           -- RI-GTO INTEGRALS CHOSEN --
------------------------------------------------------------------------------
------------------------------------------------------------------------------
                   ___                                                        
                  /   \      - P O W E R E D   B Y -                         
                 /     \                                                     
                 |  |  |   _    _      __       _____    __    __             
                 |  |  |  | |  | |    /  \     |  _  \  |  |  /  |          
                  \  \/   | |  | |   /    \    | | | |  |  | /  /          
                 / \  \   | |__| |  /  /\  \   | |_| |  |  |/  /          
                |  |  |   |  __  | /  /__\  \  |    /   |      \           
                |  |  |   | |  | | |   __   |  |    \   |  |\   \          
                \     /   | |  | | |  |  |  |  | |\  \  |  | \   \       
                 \___/    |_|  |_| |__|  |__|  |_| \__\ |__|  \__/        
                                                                              
                      - O R C A' S   B I G   F R I E N D -                    
                                      &                                       
                       - I N T E G R A L  F E E D E R -                       
                                                                              
 v1 FN, 2020, v2 2021                                                         
------------------------------------------------------------------------------


Reading SHARK input file NMU-H_GS.SHARKINP.tmp ... ok
----------------------
SHARK INTEGRAL PACKAGE
----------------------

Number of atoms                             ...     43
Number of basis functions                   ...    690
Number of shells                            ...    316
Maximum angular momentum                    ...      2
Integral batch strategy                     ... SHARK/LIBINT Hybrid
RI-J (if used) integral strategy            ... SPLIT-RIJ (Revised 2003 algorithm where possible)
Printlevel                                  ...      1
Contraction scheme used                     ... SEGMENTED contraction
Coulomb Range Separation                    ... NOT USED
Exchange Range Separation                   ... NOT USED
Finite Nucleus Model                        ... NOT USED
Auxiliary Coulomb fitting basis             ... AVAILABLE
   # of basis functions in Aux-J            ...   1385
   # of shells in Aux-J                     ...    455
   Maximum angular momentum in Aux-J        ...      4
Auxiliary J/K fitting basis                 ... NOT available
Auxiliary Correlation fitting basis         ... AVAILABLE
   # of basis functions in Aux-C            ...   2109
   # of shells in Aux-C                     ...    661
   Maximum angular momentum in Aux-C        ...      4
Auxiliary 'external' fitting basis          ... NOT available
Integral threshold                          ...     2.500000e-11
Primitive cut-off                           ...     2.500000e-12
Primitive pair pre-selection threshold      ...     2.500000e-12

Calculating pre-screening integrals         ... done (  0.2 sec) Dimension = 316
Organizing shell pair data                  ... done (  6.5 sec)
Shell pair information
Total number of shell pairs                 ...     50086
Shell pairs after pre-screening             ...     33073
Total number of primitive shell pairs       ...    163320
Primitive shell pairs kept                  ...     70953
          la=0 lb=0:   9822 shell pairs
          la=1 lb=0:  10991 shell pairs
          la=1 lb=1:   3084 shell pairs
          la=2 lb=0:   5381 shell pairs
          la=2 lb=1:   3034 shell pairs
          la=2 lb=2:    761 shell pairs

Calculating one electron integrals          ... done (  0.3 sec)
Calculating RI/J V-Matrix + Cholesky decomp.... done (  7.1 sec)
Calculating RI/C V-Matrix + Cholesky decomp.... done ( 18.2 sec)
Calculating Nuclear repulsion               ... done (  0.0 sec) ENN=   1969.146737927339 Eh

SHARK setup successfully completed in  51.2 seconds

Maximum memory used throughout the entire GTOINT-calculation: 240.5 MB
-------------------------------------------------------------------------------
                                 ORCA SCF
-------------------------------------------------------------------------------

------------
SCF SETTINGS
------------
Hamiltonian:
 Density Functional     Method          .... DFT(GTOs)
 Exchange Functional    Exchange        .... B88
   X-Alpha parameter    XAlpha          ....  0.666667
   Becke's b parameter  XBeta           ....  0.004200
 Correlation Functional Correlation     .... LYP
 LDA part of GGA corr.  LDAOpt          .... VWN-3
 Gradients option       PostSCFGGA      .... off
 Hybrid DFT is turned on
   Fraction HF Exchange ScalHFX         ....  0.200000
   Scaling of DF-GGA-X  ScalDFX         ....  0.720000
   Scaling of DF-GGA-C  ScalDFC         ....  0.810000
   Scaling of DF-LDA-C  ScalLDAC        ....  1.000000
   Perturbative correction              ....  0.000000
   Density functional embedding theory  .... OFF
   NL short-range parameter             ....  4.800000
 RI-approximation to the Coulomb term is turned on
   Number of AuxJ basis functions       .... 1385
   RIJ-COSX (HFX calculated with COS-X)).... on


General Settings:
 Integral files         IntName         .... NMU-H_GS
 Hartree-Fock type      HFTyp           .... RHF
 Total Charge           Charge          ....    1
 Multiplicity           Mult            ....    1
 Number of Electrons    NEL             ....  168
 Basis Dimension        Dim             ....  690
 Nuclear Repulsion      ENuc            ....   1969.1467379273 Eh

Convergence Acceleration:
 DIIS                   CNVDIIS         .... on
   Start iteration      DIISMaxIt       ....    12
   Startup error        DIISStart       ....  0.200000
   # of expansion vecs  DIISMaxEq       ....     5
   Bias factor          DIISBfac        ....   1.050
   Max. coefficient     DIISMaxC        ....  10.000
 Trust-Rad. Augm. Hess. CNVTRAH         .... auto
   Auto Start mean grad. ratio tolernc. ....  1.125000
   Auto Start start iteration           ....    20
   Auto Start num. interpolation iter.  ....    10
   Max. Number of Micro iterations      ....    16
   Max. Number of Macro iterations      .... Maxiter - #DIIS iter
   Number of Davidson start vectors     ....     2
   Converg. threshold I  (grad. norm)   ....   1.000e-05
   Converg. threshold II (energy diff.) ....   1.000e-08
   Grad. Scal. Fac. for Micro threshold ....   0.100
   Minimum threshold for Micro iter.    ....   0.010
   NR start threshold (gradient norm)   ....   0.001
   Initial trust radius                 ....   0.400
   Minimum AH scaling param. (alpha)    ....   1.000
   Maximum AH scaling param. (alpha)    .... 1000.000
   Orbital update algorithm             .... Taylor
   White noise on init. David. guess    .... on
   Maximum white noise                  ....   0.010
   Quad. conv. algorithm                .... NR
 SOSCF                  CNVSOSCF        .... on
   Start iteration      SOSCFMaxIt      ....   150
   Startup grad/error   SOSCFStart      ....  0.003300
 Level Shifting         CNVShift        .... on
   Level shift para.    LevelShift      ....    0.2500
   Turn off err/grad.   ShiftErr        ....    0.0010
 Zerner damping         CNVZerner       .... off
 Static damping         CNVDamp         .... on
   Fraction old density DampFac         ....    0.7000
   Max. Damping (<1)    DampMax         ....    0.9800
   Min. Damping (>=0)   DampMin         ....    0.0000
   Turn off err/grad.   DampErr         ....    0.1000
 Fernandez-Rico         CNVRico         .... off

SCF Procedure:
 Maximum # iterations   MaxIter         ....   125
 SCF integral mode      SCFMode         .... Direct
   Integral package                     .... SHARK and LIBINT hybrid scheme
 Reset frequency        DirectResetFreq ....    20
 Integral Threshold     Thresh          ....  2.500e-11 Eh
 Primitive CutOff       TCut            ....  2.500e-12 Eh

Convergence Tolerance:
 Convergence Check Mode ConvCheckMode   .... Total+1el-Energy
 Convergence forced     ConvForced      .... 0
 Energy Change          TolE            ....  1.000e-08 Eh
 1-El. energy change                    ....  1.000e-05 Eh
 Orbital Gradient       TolG            ....  1.000e-05
 Orbital Rotation angle TolX            ....  1.000e-05
 DIIS Error             TolErr          ....  5.000e-07


Diagonalization of the overlap matrix:
Smallest eigenvalue                        ... 4.408e-06
Time for diagonalization                   ...    0.076 sec
Threshold for overlap eigenvalues          ... 1.000e-08
Number of eigenvalues below threshold      ... 0
Time for construction of square roots      ...    2.323 sec
Total time needed                          ...    2.400 sec

Time for model grid setup =    3.956 sec

------------------------------
INITIAL GUESS: MODEL POTENTIAL
------------------------------
Loading Hartree-Fock densities                     ... done
Calculating cut-offs                               ... done
Initializing the effective Hamiltonian             ... done
Setting up the integral package (SHARK)            ... done
Starting the Coulomb interaction                   ... done (   4.8 sec)
Reading the grid                                   ... done
Mapping shells                                     ... done
Starting the XC term evaluation                    ... done (   1.8 sec)
  promolecular density results
     # of electrons  =    169.000877028
     EX              =   -138.356148817
     EC              =     -5.775549155
     EX+EC           =   -144.131697972
Transforming the Hamiltonian                       ... done (   0.1 sec)
Diagonalizing the Hamiltonian                      ... done (   0.1 sec)
Back transforming the eigenvectors                 ... done (   0.0 sec)
Now organizing SCF variables                       ... done
                      ------------------
                      INITIAL GUESS DONE (  11.5 sec)
                      ------------------
-------------------
DFT GRID GENERATION
-------------------

General Integration Accuracy     IntAcc      ... 4.388
Radial Grid Type                 RadialGrid  ... OptM3 with GC (2021)
Angular Grid (max. ang.)         AngularGrid ... 4 (Lebedev-302)
Angular grid pruning method      GridPruning ... 4 (adaptive)
Weight generation scheme         WeightScheme... Becke
Basis function cutoff            BFCut       ... 1.0000e-11
Integration weight cutoff        WCut        ... 1.0000e-14
Angular grids for H and He will be reduced by one unit
Partially contracted basis set               ... off
Rotationally invariant grid construction     ... off

Total number of grid points                  ...   203338
Total number of batches                      ...     3199
Average number of points per batch           ...       63
Average number of grid points per atom       ...     4729
Time for grid setup =    9.653 sec

--------------------
COSX GRID GENERATION
--------------------

GRIDX 1
-------
General Integration Accuracy     IntAcc      ... 3.816
Radial Grid Type                 RadialGrid  ... OptM3 with GC (2021)
Angular Grid (max. ang.)         AngularGrid ... 1 (Lebedev-50)
Angular grid pruning method      GridPruning ... 4 (adaptive)
Weight generation scheme         WeightScheme... Becke
Basis function cutoff            BFCut       ... 1.0000e-11
Integration weight cutoff        WCut        ... 1.0000e-14
Angular grids for H and He will be reduced by one unit
Partially contracted basis set               ... on
Rotationally invariant grid construction     ... off

Total number of grid points                  ...    25848
Total number of batches                      ...      424
Average number of points per batch           ...       60
Average number of grid points per atom       ...      601
UseSFitting                                  ... on

GRIDX 2
-------
General Integration Accuracy     IntAcc      ... 4.020
Radial Grid Type                 RadialGrid  ... OptM3 with GC (2021)
Angular Grid (max. ang.)         AngularGrid ... 2 (Lebedev-110)
Angular grid pruning method      GridPruning ... 4 (adaptive)
Weight generation scheme         WeightScheme... Becke
Basis function cutoff            BFCut       ... 1.0000e-11
Integration weight cutoff        WCut        ... 1.0000e-14
Angular grids for H and He will be reduced by one unit
Partially contracted basis set               ... on
Rotationally invariant grid construction     ... off

Total number of grid points                  ...    55957
Total number of batches                      ...      899
Average number of points per batch           ...       62
Average number of grid points per atom       ...     1301
UseSFitting                                  ... on

GRIDX 3
-------
General Integration Accuracy     IntAcc      ... 4.338
Radial Grid Type                 RadialGrid  ... OptM3 with GC (2021)
Angular Grid (max. ang.)         AngularGrid ... 3 (Lebedev-194)
Angular grid pruning method      GridPruning ... 4 (adaptive)
Weight generation scheme         WeightScheme... Becke
Basis function cutoff            BFCut       ... 1.0000e-11
Integration weight cutoff        WCut        ... 1.0000e-14
Angular grids for H and He will be reduced by one unit
Partially contracted basis set               ... on
Rotationally invariant grid construction     ... off

Total number of grid points                  ...   122358
Total number of batches                      ...     1932
Average number of points per batch           ...       63
Average number of grid points per atom       ...     2846
UseSFitting                                  ... on

Time for X-Grid setup             =   22.003 sec


--------------------
CPCM SOLVATION MODEL
--------------------
CPCM parameters:
  Epsilon                                         ...      80.4000
  Refrac                                          ...       1.3300
  Rsolv                                           ...       1.3000
  Surface type                                    ... GAUSSIAN VDW
  Epsilon function type                           ...         CPCM
Radii:
 Radius for C  used is    3.8550 Bohr (=   2.0400 Ang.)
 Radius for H  used is    2.4944 Bohr (=   1.3200 Ang.)
 Radius for N  used is    3.5149 Bohr (=   1.8600 Ang.)
 Radius for O  used is    3.4469 Bohr (=   1.8240 Ang.)
Calculating surface                               ...        done! (  0.0s)
GEPOL surface points                              ...         2220
GEPOL Volume                                      ...    2467.4553
GEPOL Surface-area                                ...    1226.2969
Calculating surface distance matrix               ...        done! (  0.0s)
Performing Cholesky decomposition & store         ...        done! ( 10.0s)
Overall time for CPCM initialization              ...                10.0s
--------------
SCF ITERATIONS
--------------
ITER       Energy         Delta-E        Max-DP      RMS-DP      [F,P]     Damp
               ***  Starting incremental Fock matrix formation  ***
  0  -1033.0550069882   0.000000000000 0.10044069  0.00102544  0.3084765 0.7000
  1  -1033.3032760527  -0.248269064460 0.09671411  0.00079856  0.1158628 0.7000
                               ***Turning on DIIS***
  2  -1033.4038943387  -0.100618286026 0.09198253  0.00135570  0.0410475 0.0000
  3  -1033.5662747618  -0.162380423121 0.08954308  0.00057390  0.0478174 0.0000
  4  -1033.5978180480  -0.031543286206 0.01125358  0.00017040  0.0200709 0.0000
  5  -1033.5999616643  -0.002143616298 0.01466139  0.00008751  0.0113444 0.0000
                      *** Initiating the SOSCF procedure ***
                           *** Shutting down DIIS ***
                      *** Re-Reading the Fockian *** 
                      *** Removing any level shift *** 
ITER      Energy       Delta-E        Grad      Rot      Max-DP    RMS-DP
  6  -1033.60016543  -0.0002037695  0.000278  0.000278  0.002566  0.000031
               *** Restarting incremental Fock matrix formation ***
  7  -1033.60014031   0.0000251282  0.000213  0.001058  0.002964  0.000039
  8  -1033.60013869   0.0000016153  0.000211  0.000611  0.000777  0.000010
  9  -1033.60014337  -0.0000046815  0.000044  0.000299  0.000563  0.000007
 10  -1033.60014328   0.0000000877  0.000050  0.000153  0.000187  0.000002
 11  -1033.60014346  -0.0000001775  0.000005  0.000027  0.000254  0.000002
 12  -1033.60014346   0.0000000018  0.000006  0.000010  0.000166  0.000001
                  ***Gradient check signals convergence***
              ***Rediagonalizing the Fockian in SOSCF/NRSCF***

               *****************************************************
               *                     SUCCESS                       *
               *           SCF CONVERGED AFTER  13 CYCLES          *
               *****************************************************

Old exchange energy                            =    -28.065320133 Eh
New exchange energy                            =    -28.065302860 Eh
Exchange energy change after final integration =      0.000017273 Eh
Total energy after final integration           =  -1033.600126188 Eh
Final COS-X integration done in                =   177.239 sec

----------------
TOTAL SCF ENERGY
----------------

Total Energy       :        -1033.60012619 Eh          -28125.68932 eV

Components:
Nuclear Repulsion  :         1969.14673793 Eh           53583.20686 eV
Electronic Energy  :        -3002.74686412 Eh          -81708.89617 eV
One Electron Energy:        -5294.43470729 Eh         -144068.89271 eV
Two Electron Energy:         2291.68784317 Eh           62359.99653 eV
Max COSX asymmetry :            0.00000125 Eh               0.00003 eV
CPCM Dielectric    :           -0.10028701 Eh              -2.72895 eV

Virial components:
Potential Energy   :        -2063.43025121 Eh          -56148.79168 eV
Kinetic Energy     :         1029.83012502 Eh           28023.10237 eV
Virial Ratio       :            2.00366080


DFT components:
N(Alpha)           :       83.999904846163 electrons
N(Beta)            :       83.999904846163 electrons
N(Total)           :      167.999809692325 electrons
E(X)               :     -111.525359710633 Eh       
E(C)               :       -7.385637335499 Eh       
E(XC)              :     -118.910997046132 Eh       
DFET-embed. en.    :        0.000000000000 Eh       
CPCM Solvation Model Properties:
Surface-charge          :           -1.03202716
Charge-correction       :            0.00293992 Eh               0.08000 eV
Free-energy (cav+disp)  :  This term is not implemented in the current solvation scheme

---------------
SCF CONVERGENCE
---------------

  Last Energy change         ...   -1.7103e-09  Tolerance :   1.0000e-08
  Last MAX-Density change    ...    2.3315e-15  Tolerance :   1.0000e-07
  Last RMS-Density change    ...    1.6962e-17  Tolerance :   5.0000e-09
  Last Orbital Gradient      ...    9.8766e-07  Tolerance :   1.0000e-05
  Last Orbital Rotation      ...    6.2883e-06  Tolerance :   1.0000e-05

             **** THE GBW FILE WAS UPDATED (NMU-H_GS.gbw) ****
             **** DENSITY NMU-H_GS.scfp WAS UPDATED ****
             **** ENERGY FILE WAS UPDATED (NMU-H_GS.en.tmp) ****
             **** THE GBW FILE WAS UPDATED (NMU-H_GS.gbw) ****
             **** DENSITY NMU-H_GS.scfp WAS UPDATED ****
----------------
ORBITAL ENERGIES
----------------

  NO   OCC          E(Eh)            E(eV) 
   0   2.0000     -19.209108      -522.7064 
   1   2.0000     -19.120800      -520.3034 
   2   2.0000     -14.421035      -392.4163 
   3   2.0000     -14.347419      -390.4131 
   4   2.0000     -10.319902      -280.8188 
   5   2.0000     -10.265308      -279.3332 
   6   2.0000     -10.238659      -278.6081 
   7   2.0000     -10.238465      -278.6028 
   8   2.0000     -10.233935      -278.4795 
   9   2.0000     -10.228269      -278.3253 
  10   2.0000     -10.223653      -278.1998 
  11   2.0000     -10.219077      -278.0752 
  12   2.0000     -10.216831      -278.0141 
  13   2.0000     -10.205309      -277.7006 
  14   2.0000     -10.205241      -277.6987 
  15   2.0000     -10.205091      -277.6947 
  16   2.0000     -10.197053      -277.4759 
  17   2.0000     -10.192599      -277.3547 
  18   2.0000     -10.189024      -277.2574 
  19   2.0000     -10.186554      -277.1902 
  20   2.0000     -10.177721      -276.9499 
  21   2.0000     -10.174273      -276.8560 
  22   2.0000     -10.172481      -276.8073 
  23   2.0000     -10.171570      -276.7825 
  24   2.0000      -1.161131       -31.5960 
  25   2.0000      -1.133993       -30.8575 
  26   2.0000      -1.043429       -28.3932 
  27   2.0000      -0.962769       -26.1983 
  28   2.0000      -0.889246       -24.1976 
  29   2.0000      -0.875551       -23.8250 
  30   2.0000      -0.868876       -23.6433 
  31   2.0000      -0.827618       -22.5206 
  32   2.0000      -0.822385       -22.3782 
  33   2.0000      -0.779399       -21.2085 
  34   2.0000      -0.772596       -21.0234 
  35   2.0000      -0.763803       -20.7841 
  36   2.0000      -0.722246       -19.6533 
  37   2.0000      -0.705604       -19.2005 
  38   2.0000      -0.695609       -18.9285 
  39   2.0000      -0.673892       -18.3375 
  40   2.0000      -0.663581       -18.0570 
  41   2.0000      -0.644407       -17.5352 
  42   2.0000      -0.641479       -17.4555 
  43   2.0000      -0.627004       -17.0617 
  44   2.0000      -0.604283       -16.4434 
  45   2.0000      -0.566400       -15.4125 
  46   2.0000      -0.565654       -15.3922 
  47   2.0000      -0.556636       -15.1468 
  48   2.0000      -0.545468       -14.8429 
  49   2.0000      -0.528736       -14.3876 
  50   2.0000      -0.522226       -14.2105 
  51   2.0000      -0.499609       -13.5951 
  52   2.0000      -0.496268       -13.5041 
  53   2.0000      -0.488549       -13.2941 
  54   2.0000      -0.483237       -13.1496 
  55   2.0000      -0.476686       -12.9713 
  56   2.0000      -0.473043       -12.8721 
  57   2.0000      -0.465704       -12.6724 
  58   2.0000      -0.454966       -12.3803 
  59   2.0000      -0.450729       -12.2650 
  60   2.0000      -0.445266       -12.1163 
  61   2.0000      -0.437139       -11.8952 
  62   2.0000      -0.432872       -11.7790 
  63   2.0000      -0.421168       -11.4606 
  64   2.0000      -0.412493       -11.2245 
  65   2.0000      -0.410075       -11.1587 
  66   2.0000      -0.405580       -11.0364 
  67   2.0000      -0.398699       -10.8491 
  68   2.0000      -0.385462       -10.4890 
  69   2.0000      -0.383445       -10.4341 
  70   2.0000      -0.368751       -10.0342 
  71   2.0000      -0.362746        -9.8708 
  72   2.0000      -0.355258        -9.6671 
  73   2.0000      -0.346343        -9.4245 
  74   2.0000      -0.343776        -9.3546 
  75   2.0000      -0.338606        -9.2139 
  76   2.0000      -0.334100        -9.0913 
  77   2.0000      -0.324956        -8.8425 
  78   2.0000      -0.320405        -8.7187 
  79   2.0000      -0.307677        -8.3723 
  80   2.0000      -0.299150        -8.1403 
  81   2.0000      -0.266716        -7.2577 
  82   2.0000      -0.241587        -6.5739 
  83   2.0000      -0.201001        -5.4695 
  84   0.0000      -0.083718        -2.2781 
  85   0.0000      -0.063124        -1.7177 
  86   0.0000      -0.055578        -1.5124 
  87   0.0000      -0.028322        -0.7707 
  88   0.0000       0.000615         0.0167 
  89   0.0000       0.009852         0.2681 
  90   0.0000       0.033820         0.9203 
  91   0.0000       0.046064         1.2535 
  92   0.0000       0.058434         1.5901 
  93   0.0000       0.060288         1.6405 
  94   0.0000       0.063405         1.7253 
  95   0.0000       0.068503         1.8641 
  96   0.0000       0.073453         1.9988 
  97   0.0000       0.076721         2.0877 
  98   0.0000       0.082003         2.2314 
  99   0.0000       0.089301         2.4300 
 100   0.0000       0.092211         2.5092 
 101   0.0000       0.092703         2.5226 
 102   0.0000       0.094530         2.5723 
 103   0.0000       0.102266         2.7828 
 104   0.0000       0.103495         2.8162 
 105   0.0000       0.109877         2.9899 
 106   0.0000       0.118253         3.2178 
 107   0.0000       0.120077         3.2675 
 108   0.0000       0.122597         3.3360 
 109   0.0000       0.124698         3.3932 
 110   0.0000       0.134633         3.6635 
 111   0.0000       0.138639         3.7726 
 112   0.0000       0.143925         3.9164 
 113   0.0000       0.146828         3.9954 
 114   0.0000       0.148460         4.0398 
 115   0.0000       0.154277         4.1981 
 116   0.0000       0.163714         4.4549 
 117   0.0000       0.167829         4.5669 
 118   0.0000       0.171613         4.6698 
 119   0.0000       0.174666         4.7529 
 120   0.0000       0.179951         4.8967 
 121   0.0000       0.182137         4.9562 
 122   0.0000       0.186975         5.0879 
 123   0.0000       0.187249         5.0953 
 124   0.0000       0.191688         5.2161 
 125   0.0000       0.197647         5.3783 
 126   0.0000       0.201079         5.4716 
 127   0.0000       0.204035         5.5521 
 128   0.0000       0.210337         5.7236 
 129   0.0000       0.212676         5.7872 
 130   0.0000       0.214871         5.8469 
 131   0.0000       0.220312         5.9950 
 132   0.0000       0.225511         6.1365 
 133   0.0000       0.227248         6.1837 
 134   0.0000       0.231494         6.2993 
 135   0.0000       0.236992         6.4489 
 136   0.0000       0.241622         6.5749 
 137   0.0000       0.247792         6.7428 
 138   0.0000       0.251038         6.8311 
 139   0.0000       0.253391         6.8951 
 140   0.0000       0.258331         7.0296 
 141   0.0000       0.266513         7.2522 
 142   0.0000       0.270611         7.3637 
 143   0.0000       0.273225         7.4348 
 144   0.0000       0.275751         7.5036 
 145   0.0000       0.279813         7.6141 
 146   0.0000       0.286920         7.8075 
 147   0.0000       0.291521         7.9327 
 148   0.0000       0.298614         8.1257 
 149   0.0000       0.302235         8.2242 
 150   0.0000       0.308504         8.3948 
 151   0.0000       0.310766         8.4564 
 152   0.0000       0.318079         8.6554 
 153   0.0000       0.320126         8.7111 
 154   0.0000       0.325778         8.8649 
 155   0.0000       0.328219         8.9313 
 156   0.0000       0.330742         9.0000 
 157   0.0000       0.333500         9.0750 
 158   0.0000       0.338152         9.2016 
 159   0.0000       0.342497         9.3198 
 160   0.0000       0.343960         9.3596 
 161   0.0000       0.346099         9.4178 
 162   0.0000       0.361799         9.8450 
 163   0.0000       0.361842         9.8462 
 164   0.0000       0.366716         9.9789 
 165   0.0000       0.370562        10.0835 
 166   0.0000       0.375106        10.2072 
 167   0.0000       0.388675        10.5764 
 168   0.0000       0.395737        10.7686 
 169   0.0000       0.397457        10.8154 
 170   0.0000       0.400958        10.9106 
 171   0.0000       0.405071        11.0226 
 172   0.0000       0.407974        11.1015 
 173   0.0000       0.411536        11.1985 
 174   0.0000       0.412847        11.2341 
 175   0.0000       0.416062        11.3216 
 176   0.0000       0.419163        11.4060 
 177   0.0000       0.422409        11.4943 
 178   0.0000       0.428213        11.6523 
 179   0.0000       0.431880        11.7521 
 180   0.0000       0.436678        11.8826 
 181   0.0000       0.438071        11.9205 
 182   0.0000       0.438780        11.9398 
 183   0.0000       0.440026        11.9737 
 184   0.0000       0.446096        12.1389 
 185   0.0000       0.450083        12.2474 
 186   0.0000       0.452237        12.3060 
 187   0.0000       0.454790        12.3755 
 188   0.0000       0.456828        12.4309 
 189   0.0000       0.457560        12.4509 
 190   0.0000       0.460837        12.5400 
 191   0.0000       0.462462        12.5842 
 192   0.0000       0.464211        12.6318 
 193   0.0000       0.471847        12.8396 
 194   0.0000       0.476790        12.9741 
 195   0.0000       0.478808        13.0290 
 196   0.0000       0.482276        13.1234 
 197   0.0000       0.484521        13.1845 
 198   0.0000       0.489006        13.3065 
 199   0.0000       0.497781        13.5453 
 200   0.0000       0.501462        13.6455 
 201   0.0000       0.502165        13.6646 
 202   0.0000       0.511320        13.9137 
 203   0.0000       0.512031        13.9331 
 204   0.0000       0.520383        14.1604 
 205   0.0000       0.526100        14.3159 
 206   0.0000       0.535937        14.5836 
 207   0.0000       0.544538        14.8176 
 208   0.0000       0.551229        14.9997 
 209   0.0000       0.554649        15.0928 
 210   0.0000       0.558984        15.2107 
 211   0.0000       0.564459        15.3597 
 212   0.0000       0.574156        15.6236 
 213   0.0000       0.574830        15.6419 
 214   0.0000       0.583037        15.8653 
 215   0.0000       0.587672        15.9914 
 216   0.0000       0.590777        16.0759 
 217   0.0000       0.599301        16.3078 
 218   0.0000       0.602348        16.3907 
 219   0.0000       0.605714        16.4823 
 220   0.0000       0.613790        16.7021 
 221   0.0000       0.619554        16.8589 
 222   0.0000       0.624304        16.9882 
 223   0.0000       0.632206        17.2032 
 224   0.0000       0.641791        17.4640 
 225   0.0000       0.647809        17.6278 
 226   0.0000       0.654018        17.7967 
 227   0.0000       0.664963        18.0946 
 228   0.0000       0.667387        18.1605 
 229   0.0000       0.671065        18.2606 
 230   0.0000       0.677443        18.4342 
 231   0.0000       0.687108        18.6972 
 232   0.0000       0.690545        18.7907 
 233   0.0000       0.695419        18.9233 
[...]
  20 H :    0.138563
  21 H :    0.136278
  22 C :   -0.060048
  23 C :   -0.084708
  24 C :   -0.129723
  25 O :    0.222888
  26 C :   -0.248009
  27 C :   -0.006718
  28 C :   -0.103343
  29 O :   -0.066308
  30 C :   -0.075678
  31 C :   -0.008092
  32 C :   -0.009512
  33 N :    0.209323
  34 C :   -0.048568
  35 C :   -0.085659
  36 H :    0.164559
  37 H :    0.160633
  38 H :    0.161027
  39 H :    0.159372
  40 H :    0.151013
  41 H :    0.160445
  42 H :    0.239102

-------------------------------
LOEWDIN REDUCED ORBITAL CHARGES
-------------------------------
  0 C s       :     2.781925  s :     2.781925
      pz      :     1.052422  p :     2.964417
      px      :     0.885329
      py      :     1.026666
      dz2     :     0.082153  d :     0.439798
      dxz     :     0.103535
      dyz     :     0.069660
      dx2y2   :     0.066818
      dxy     :     0.117630
  1 C s       :     2.780334  s :     2.780334
      pz      :     1.027081  p :     3.070717
      px      :     1.021305
      py      :     1.022330
      dz2     :     0.088746  d :     0.366753
      dxz     :     0.036587
      dyz     :     0.088312
      dx2y2   :     0.078076
      dxy     :     0.075031
  2 C s       :     2.769060  s :     2.769060
      pz      :     1.036881  p :     3.048461
      px      :     0.997066
      py      :     1.014514
      dz2     :     0.041600  d :     0.367992
      dxz     :     0.067544
      dyz     :     0.088534
      dx2y2   :     0.088495
      dxy     :     0.081820
  3 H s       :     0.811628  s :     0.811628
      pz      :     0.029607  p :     0.058312
      px      :     0.013550
      py      :     0.015155
  4 H s       :     0.808847  s :     0.808847
      pz      :     0.012070  p :     0.058816
      px      :     0.031089
      py      :     0.015656
  5 C s       :     2.719832  s :     2.719832
      pz      :     0.899880  p :     2.902891
      px      :     1.013659
      py      :     0.989352
      dz2     :     0.037721  d :     0.479775
      dxz     :     0.078714
      dyz     :     0.065729
      dx2y2   :     0.154705
      dxy     :     0.142907
  6 H s       :     0.804629  s :     0.804629
      pz      :     0.023937  p :     0.058492
      px      :     0.011529
      py      :     0.023026
  7 H s       :     0.803415  s :     0.803415
      pz      :     0.027803  p :     0.058175
      px      :     0.013986
      py      :     0.016386
  8 C s       :     2.702764  s :     2.702764
      pz      :     0.852881  p :     2.760240
      px      :     0.939842
      py      :     0.967517
      dz2     :     0.048983  d :     0.599026
      dxz     :     0.126233
      dyz     :     0.084715
      dx2y2   :     0.163806
      dxy     :     0.175289
  9 N s       :     2.912075  s :     2.912075
      pz      :     1.355040  p :     3.681090
      px      :     1.151239
      py      :     1.174811
      dz2     :     0.025528  d :     0.274213
      dxz     :     0.044283
      dyz     :     0.035969
      dx2y2   :     0.085943
      dxy     :     0.082491
 10 H s       :     0.815093  s :     0.815093
      pz      :     0.030179  p :     0.058189
      px      :     0.012786
      py      :     0.015223
 11 H s       :     0.810007  s :     0.810007
      pz      :     0.014940  p :     0.058587
      px      :     0.018221
      py      :     0.025426
 12 C s       :     2.781460  s :     2.781460
      pz      :     1.023741  p :     2.964940
      px      :     1.047126
      py      :     0.894073
      dz2     :     0.116541  d :     0.438061
      dxz     :     0.043942
      dyz     :     0.081743
      dx2y2   :     0.096781
      dxy     :     0.099053
 13 C s       :     2.779878  s :     2.779878
      pz      :     1.038811  p :     3.069684
      px      :     1.016518
      py      :     1.014355
      dz2     :     0.082015  d :     0.366820
      dxz     :     0.059765
      dyz     :     0.048812
      dx2y2   :     0.102021
      dxy     :     0.074207
 14 H s       :     0.814680  s :     0.814680
      pz      :     0.036415  p :     0.058218
      px      :     0.012483
      py      :     0.009319
 15 H s       :     0.809579  s :     0.809579
      pz      :     0.014662  p :     0.058716
      px      :     0.028005
      py      :     0.016049
 16 C s       :     2.767640  s :     2.767640
      pz      :     1.033561  p :     3.049668
      px      :     1.024917
      py      :     0.991190
      dz2     :     0.088837  d :     0.368662
      dxz     :     0.039914
      dyz     :     0.060020
      dx2y2   :     0.092786
      dxy     :     0.087104
 17 H s       :     0.808728  s :     0.808728
      pz      :     0.017313  p :     0.058788
      px      :     0.011956
      py      :     0.029519
 18 H s       :     0.811073  s :     0.811073
      pz      :     0.034243  p :     0.058294
      px      :     0.011672
      py      :     0.012379
 19 C s       :     2.712907  s :     2.712907
      pz      :     0.934492  p :     2.912693
      px      :     0.994688
      py      :     0.983512
      dz2     :     0.045088  d :     0.460798
      dxz     :     0.071291
      dyz     :     0.065772
      dx2y2   :     0.130783
      dxy     :     0.147864
 20 H s       :     0.803116  s :     0.803116
      pz      :     0.034551  p :     0.058321
      px      :     0.012437
      py      :     0.011333
 21 H s       :     0.804328  s :     0.804328
      pz      :     0.015664  p :     0.059394
      px      :     0.028851
      py      :     0.014880
 22 C s       :     2.759685  s :     2.759685
      pz      :     0.900468  p :     2.921186
      px      :     1.031082
      py      :     0.989636
      dz2     :     0.023430  d :     0.379177
      dxz     :     0.089191
      dyz     :     0.026198
      dx2y2   :     0.143823
      dxy     :     0.096535
 23 C s       :     2.709163  s :     2.709163
      pz      :     0.885240  p :     2.736318
      px      :     0.849982
      py      :     1.001096
      dz2     :     0.057710  d :     0.639227
      dxz     :     0.126037
      dyz     :     0.084537
      dx2y2   :     0.174028
      dxy     :     0.196915
 24 C s       :     2.698233  s :     2.698233
      pz      :     0.927986  p :     2.931208
      px      :     1.008145
      py      :     0.995077
      dz2     :     0.045456  d :     0.500282
      dxz     :     0.080608
      dyz     :     0.067525
      dx2y2   :     0.160215
      dxy     :     0.146479
 25 O s       :     3.271966  s :     3.271966
      pz      :     1.563668  p :     4.402575
      px      :     1.269320
      py      :     1.569588
      dz2     :     0.011555  d :     0.102571
      dxz     :     0.023155
      dyz     :     0.005675
      dx2y2   :     0.025329
      dxy     :     0.036857
 26 C s       :     2.742199  s :     2.742199
      pz      :     0.799414  p :     2.622277
      px      :     0.854506
      py      :     0.968357
      dz2     :     0.079826  d :     0.883532
      dxz     :     0.158031
      dyz     :     0.103460
      dx2y2   :     0.280130
      dxy     :     0.262085
 27 C s       :     2.764359  s :     2.764359
      pz      :     0.826637  p :     2.854710
      px      :     1.037559
      py      :     0.990514
      dz2     :     0.024148  d :     0.387649
      dxz     :     0.099176
      dyz     :     0.025839
      dx2y2   :     0.139295
      dxy     :     0.099191
 28 C s       :     2.712451  s :     2.712451
      pz      :     0.961175  p :     2.940218
      px      :     0.998504
      py      :     0.980538
      dz2     :     0.037814  d :     0.450674
      dxz     :     0.072766
      dyz     :     0.054894
      dx2y2   :     0.152550
      dxy     :     0.132651
 29 O s       :     3.436926  s :     3.436926
      pz      :     1.428698  p :     4.563041
      px      :     1.540031
      py      :     1.594312
      dz2     :     0.008056  d :     0.066341
      dxz     :     0.013672
      dyz     :     0.006129
      dx2y2   :     0.016747
      dxy     :     0.021737
 30 C s       :     2.714395  s :     2.714395
      pz      :     0.969699  p :     2.870178
      px      :     0.980110
      py      :     0.920368
      dz2     :     0.087099  d :     0.491105
      dxz     :     0.122869
      dyz     :     0.081423
      dx2y2   :     0.101500
      dxy     :     0.098214
 31 C s       :     2.776584  s :     2.776584
      pz      :     0.933728  p :     2.868448
      px      :     1.017191
      py      :     0.917529
      dz2     :     0.055261  d :     0.363060
      dxz     :     0.082163
      dyz     :     0.061500
      dx2y2   :     0.090477
      dxy     :     0.073660
 32 C s       :     2.771379  s :     2.771379
      pz      :     0.974112  p :     2.812477
      px      :     0.919515
      py      :     0.918850
      dz2     :     0.066003  d :     0.425656
      dxz     :     0.110897
      dyz     :     0.056867
      dx2y2   :     0.096286
      dxy     :     0.095602
 33 N s       :     2.928198  s :     2.928198
      pz      :     1.191673  p :     3.612346
      px      :     1.221886
      py      :     1.198787
      dz2     :     0.035551  d :     0.250134
      dxz     :     0.057997
      dyz     :     0.038377
      dx2y2   :     0.063102
      dxy     :     0.055106
 34 C s       :     2.782009  s :     2.782009
      pz      :     0.947987  p :     2.835588
      px      :     0.927831
      py      :     0.959770
      dz2     :     0.104455  d :     0.430972
      dxz     :     0.104808
      dyz     :     0.063967
      dx2y2   :     0.059887
      dxy     :     0.097854
 35 C s       :     2.777490  s :     2.777490
      pz      :     0.974688  p :     2.953896
      px      :     1.009023
      py      :     0.970185
      dz2     :     0.051667  d :     0.354272
      dxz     :     0.093365
      dyz     :     0.060087
      dx2y2   :     0.081487
      dxy     :     0.067667
 36 H s       :     0.770922  s :     0.770922
      pz      :     0.025788  p :     0.064519
      px      :     0.027115
      py      :     0.011617
 37 H s       :     0.777146  s :     0.777146
      pz      :     0.021945  p :     0.062221
      px      :     0.028381
      py      :     0.011895
 38 H s       :     0.774842  s :     0.774842
      pz      :     0.011420  p :     0.064131
      px      :     0.030762
      py      :     0.021949
 39 H s       :     0.776791  s :     0.776791
      pz      :     0.026941  p :     0.063837
      px      :     0.011215
      py      :     0.025681
 40 H s       :     0.788200  s :     0.788200
      pz      :     0.015657  p :     0.060787
      px      :     0.010820
      py      :     0.034311
 41 H s       :     0.778636  s :     0.778636
      pz      :     0.013810  p :     0.060920
      px      :     0.010994
      py      :     0.036116
 42 H s       :     0.660838  s :     0.660838
      pz      :     0.044440  p :     0.100060
      px      :     0.015613
      py      :     0.040007


                      *****************************
                      * MAYER POPULATION ANALYSIS *
                      *****************************

  NA   - Mulliken gross atomic population
  ZA   - Total nuclear charge
  QA   - Mulliken gross atomic charge
  VA   - Mayer's total valence
  BVA  - Mayer's bonded valence
  FA   - Mayer's free valence

  ATOM       NA         ZA         QA         VA         BVA        FA
  0 C      6.1150     6.0000    -0.1150     3.9072     3.9072     0.0000
  1 C      6.1664     6.0000    -0.1664     3.9544     3.9544     0.0000
  2 C      6.2303     6.0000    -0.2303     3.9160     3.9160     0.0000
  3 H      0.8958     1.0000     0.1042     0.9666     0.9666    -0.0000
  4 H      0.8807     1.0000     0.1193     0.9587     0.9587    -0.0000
  5 C      5.7596     6.0000     0.2404     3.6869     3.6869    -0.0000
  6 H      0.8721     1.0000     0.1279     0.9530     0.9530    -0.0000
  7 H      0.8870     1.0000     0.1130     0.9547     0.9547     0.0000
  8 C      5.9930     6.0000     0.0070     4.0949     4.0949     0.0000
  9 N      7.1361     7.0000    -0.1361     3.3459     3.3459    -0.0000
 10 H      0.8889     1.0000     0.1111     0.9527     0.9527    -0.0000
 11 H      0.8665     1.0000     0.1335     0.9497     0.9497     0.0000
 12 C      6.1167     6.0000    -0.1167     3.9036     3.9036    -0.0000
 13 C      6.1520     6.0000    -0.1520     3.9514     3.9514     0.0000
 14 H      0.8890     1.0000     0.1110     0.9544     0.9544    -0.0000
 15 H      0.8650     1.0000     0.1350     0.9492     0.9492     0.0000
 16 C      6.2761     6.0000    -0.2761     3.9534     3.9534    -0.0000
 17 H      0.8809     1.0000     0.1191     0.9592     0.9592     0.0000
 18 H      0.8956     1.0000     0.1044     0.9658     0.9658    -0.0000
 19 C      5.8980     6.0000     0.1020     3.6632     3.6632    -0.0000
 20 H      0.8840     1.0000     0.1160     0.9547     0.9547    -0.0000
 21 H      0.8724     1.0000     0.1276     0.9572     0.9572     0.0000
 22 C      6.5434     6.0000    -0.5434     3.8331     3.8331     0.0000
 23 C      5.9133     6.0000     0.0867     3.9054     3.9054     0.0000
 24 C      5.5510     6.0000     0.4490     3.5618     3.5618    -0.0000
 25 O      8.3725     8.0000    -0.3725     2.1275     2.1275    -0.0000
 26 C      5.5681     6.0000     0.4319     4.2312     4.2312    -0.0000
 27 C      6.3207     6.0000    -0.3207     3.8027     3.8027    -0.0000
 28 C      5.8298     6.0000     0.1702     3.4562     3.4562     0.0000
 29 O      8.5664     8.0000    -0.5664     2.0084     2.0084     0.0000
 30 C      5.7817     6.0000     0.2183     3.8314     3.8314    -0.0000
 31 C      6.1552     6.0000    -0.1552     4.0456     4.0456    -0.0000
 32 C      6.0038     6.0000    -0.0038     3.9570     3.9570     0.0000
 33 N      7.2254     7.0000    -0.2254     3.5758     3.5758    -0.0000
 34 C      5.8981     6.0000     0.1019     3.9042     3.9042     0.0000
 35 C      6.0349     6.0000    -0.0349     3.9391     3.9391    -0.0000
 36 H      0.8081     1.0000     0.1919     0.9640     0.9640    -0.0000
 37 H      0.8480     1.0000     0.1520     0.9630     0.9630     0.0000
 38 H      0.8117     1.0000     0.1883     0.9566     0.9566    -0.0000
 39 H      0.8486     1.0000     0.1514     0.9814     0.9814    -0.0000
 40 H      0.9068     1.0000     0.0932     0.9899     0.9899     0.0000
 41 H      0.8598     1.0000     0.1402     0.9756     0.9756    -0.0000
 42 H      0.7317     1.0000     0.2683     0.9244     0.9244    -0.0000

  Mayer bond orders larger than 0.100000
B(  0-C ,  1-C ) :   1.0045 B(  0-C ,  9-N ) :   0.9438 B(  0-C , 10-H ) :   0.9475 
B(  0-C , 11-H ) :   0.9507 B(  1-C ,  2-C ) :   1.0203 B(  1-C ,  3-H ) :   0.9684 
B(  1-C ,  4-H ) :   0.9601 B(  2-C ,  5-C ) :   0.9961 B(  2-C ,  6-H ) :   0.9552 
B(  2-C ,  7-H ) :   0.9455 B(  5-C ,  8-C ) :   1.2288 B(  5-C , 22-C ) :   1.4065 
B(  8-C ,  9-N ) :   1.3792 B(  8-C , 19-C ) :   1.2412 B(  9-N , 12-C ) :   0.9435 
B( 12-C , 13-C ) :   0.9989 B( 12-C , 14-H ) :   0.9483 B( 12-C , 15-H ) :   0.9521 
B( 13-C , 16-C ) :   1.0352 B( 13-C , 17-H ) :   0.9621 B( 13-C , 18-H ) :   0.9666 
B( 16-C , 19-C ) :   1.0372 B( 16-C , 20-H ) :   0.9536 B( 16-C , 21-H ) :   0.9471 
B( 19-C , 23-C ) :   1.3450 B( 22-C , 24-C ) :   1.0874 B( 22-C , 40-H ) :   1.0498 
B( 23-C , 24-C ) :   1.3452 B( 23-C , 25-O ) :   1.0211 B( 24-C , 27-C ) :   1.1737 
B( 25-O , 26-C ) :   1.1000 B( 26-C , 28-C ) :   1.1287 B( 26-C , 29-O ) :   1.9005 
B( 27-C , 28-C ) :   1.3738 B( 27-C , 41-H ) :   0.9662 B( 28-C , 30-C ) :   0.9672 
B( 30-C , 31-C ) :   1.3612 B( 30-C , 32-C ) :   1.4357 B( 31-C , 35-C ) :   1.4394 
B( 31-C , 39-H ) :   0.9497 B( 32-C , 33-N ) :   1.3291 B( 32-C , 36-H ) :   0.9186 
B( 33-N , 34-C ) :   1.2974 B( 33-N , 42-H ) :   0.8923 B( 34-C , 35-C ) :   1.4452 
B( 34-C , 38-H ) :   0.9320 B( 35-C , 37-H ) :   0.9536 

Environment variable NBOEXE for nbo6.exe or nbo5.exe not set! Skipping NBO-Analysis

-------
TIMINGS
-------

Total SCF time: 0 days 0 hours 17 min 3 sec 

Total time                  ....    1023.325 sec
Sum of individual times     ....     950.817 sec  ( 92.9%)

Fock matrix formation       ....     893.373 sec  ( 87.3%)
  Split-RI-J                ....      50.275 sec  (  5.6% of F)
  Chain of spheres X        ....     617.044 sec  ( 69.1% of F)
  XC integration            ....      84.051 sec  (  9.4% of F)
    Basis function eval.    ....      10.527 sec  ( 12.5% of XC)
    Density eval.           ....      26.073 sec  ( 31.0% of XC)
    XC-Functional eval.     ....       9.781 sec  ( 11.6% of XC)
    XC-Potential eval.      ....       8.112 sec  (  9.7% of XC)
Diagonalization             ....       0.127 sec  (  0.0%)
Density matrix formation    ....       0.082 sec  (  0.0%)
Population analysis         ....       5.246 sec  (  0.5%)
Initial guess               ....       0.151 sec  (  0.0%)
Orbital Transformation      ....       0.000 sec  (  0.0%)
Orbital Orthonormalization  ....       0.122 sec  (  0.0%)
DIIS solution               ....       0.039 sec  (  0.0%)
SOSCF solution              ....       4.719 sec  (  0.5%)
Grid generation             ....      47.081 sec  (  4.6%)

Maximum memory used throughout the entire SCF-calculation: 357.1 MB

-------------------------   --------------------
FINAL SINGLE POINT ENERGY     -1033.777851914482
-------------------------   --------------------

                                *** OPTIMIZATION RUN DONE ***

                            ***************************************
                            *     ORCA property calculations      *
                            ***************************************

                                    ---------------------
                                    Active property flags
                                    ---------------------
   (+) Dipole Moment


------------------------------------------------------------------------------
                       ORCA ELECTRIC PROPERTIES CALCULATION
------------------------------------------------------------------------------

Dipole Moment Calculation                       ... on
Quadrupole Moment Calculation                   ... off
Polarizability Calculation                      ... off
GBWName                                         ... NMU-H_GS.gbw
Electron density                                ... NMU-H_GS.scfp
The origin for moment calculation is the CENTER OF MASS  = (-2.732943, -4.928285 -0.080665)

-------------
DIPOLE MOMENT
-------------
                                X             Y             Z
Electronic contribution:     24.12964      -8.10228      -0.08280
Nuclear contribution   :    -21.22893       2.90820      -1.84842
                        -----------------------------------------
Total Dipole Moment    :      2.90071      -5.19408      -1.93122
                        -----------------------------------------
Magnitude (a.u.)       :      6.25477
Magnitude (Debye)      :     15.89837



--------------------
Rotational spectrum 
--------------------
 
Rotational constants in cm-1:     0.021231     0.003909     0.003358 
Rotational constants in MHz :   636.497124   117.174418   100.669614 

 Dipole components along the rotational axes: 
x,y,z [a.u.] :     4.719972    -4.094478    -0.281628 
x,y,z [Debye]:    11.997215   -10.407337    -0.715842 

 

Timings for individual modules:

Sum of individual times         ...    27128.573 sec (= 452.143 min)
GTO integral calculation        ...      749.900 sec (=  12.498 min)   2.8 %
SCF iterations                  ...    21621.810 sec (= 360.364 min)  79.7 %
SCF Gradient evaluation         ...     4675.461 sec (=  77.924 min)  17.2 %
Geometry relaxation             ...       81.401 sec (=   1.357 min)   0.3 %
                             ****ORCA TERMINATED NORMALLY****
TOTAL RUN TIME: 0 days 7 hours 40 minutes 41 seconds 822 msec
