
                                 *****************
                                 * O   R   C   A *
                                 *****************

                                            #,                                       
                                            ###                                      
                                            ####                                     
                                            #####                                    
                                            ######                                   
                                           ########,                                 
                                     ,,################,,,,,                         
                               ,,#################################,,                 
                          ,,##########################################,,             
                       ,#########################################, ''#####,          
                    ,#############################################,,   '####,        
                  ,##################################################,,,,####,       
                ,###########''''           ''''###############################       
              ,#####''   ,,,,##########,,,,          '''####'''          '####       
            ,##' ,,,,###########################,,,                        '##       
           ' ,,###''''                  '''############,,,                           
         ,,##''                                '''############,,,,        ,,,,,,###''
      ,#''                                            '''#######################'''  
     '                                                          ''''####''''         
             ,#######,   #######,   ,#######,      ##                                
            ,#'     '#,  ##    ##  ,#'     '#,    #''#        ######   ,####,        
            ##       ##  ##   ,#'  ##            #'  '#       #        #'  '#        
            ##       ##  #######   ##           ,######,      #####,   #    #        
            '#,     ,#'  ##    ##  '#,     ,#' ,#      #,         ##   #,  ,#        
             '#######'   ##     ##  '#######'  #'      '#     #####' # '####'        



                  #######################################################
                  #                        -***-                        #
                  #          Department of theory and spectroscopy      #
                  #    Directorship and core code : Frank Neese         #
                  #        Max Planck Institute fuer Kohlenforschung    #
                  #                Kaiser Wilhelm Platz 1               #
                  #                 D-45470 Muelheim/Ruhr               #
                  #                      Germany                        #
                  #                                                     #
                  #                  All rights reserved                #
                  #                        -***-                        #
                  #######################################################


                         Program Version 5.0.4 -  RELEASE  -


 With contributions from (in alphabetic order):
   Daniel Aravena         : Magnetic Suceptibility
   Michael Atanasov       : Ab Initio Ligand Field Theory (pilot matlab implementation)
   Alexander A. Auer      : GIAO ZORA, VPT2 properties, NMR spectrum
   Ute Becker             : Parallelization
   Giovanni Bistoni       : ED, misc. LED, open-shell LED, HFLD
   Martin Brehm           : Molecular dynamics
   Dmytro Bykov           : SCF Hessian
   Vijay G. Chilkuri      : MRCI spin determinant printing, contributions to CSF-ICE
   Dipayan Datta          : RHF DLPNO-CCSD density
   Achintya Kumar Dutta   : EOM-CC, STEOM-CC
   Dmitry Ganyushin       : Spin-Orbit,Spin-Spin,Magnetic field MRCI
   Miquel Garcia          : C-PCM and meta-GGA Hessian, CC/C-PCM, Gaussian charge scheme
   Yang Guo               : DLPNO-NEVPT2, F12-NEVPT2, CIM, IAO-localization
   Andreas Hansen         : Spin unrestricted coupled pair/coupled cluster methods
   Benjamin Helmich-Paris : MC-RPA, TRAH-SCF, COSX integrals
   Lee Huntington         : MR-EOM, pCC
   Robert Izsak           : Overlap fitted RIJCOSX, COSX-SCS-MP3, EOM
   Marcus Kettner         : VPT2
   Christian Kollmar      : KDIIS, OOCD, Brueckner-CCSD(T), CCSD density, CASPT2, CASPT2-K
   Simone Kossmann        : Meta GGA functionals, TD-DFT gradient, OOMP2, MP2 Hessian
   Martin Krupicka        : Initial AUTO-CI
   Lucas Lang             : DCDCAS
   Marvin Lechner         : AUTO-CI (C++ implementation), FIC-MRCC
   Dagmar Lenk            : GEPOL surface, SMD
   Dimitrios Liakos       : Extrapolation schemes; Compound Job, initial MDCI parallelization
   Dimitrios Manganas     : Further ROCIS development; embedding schemes
   Dimitrios Pantazis     : SARC Basis sets
   Anastasios Papadopoulos: AUTO-CI, single reference methods and gradients
   Taras Petrenko         : DFT Hessian,TD-DFT gradient, ASA, ECA, R-Raman, ABS, FL, XAS/XES, NRVS
   Peter Pinski           : DLPNO-MP2, DLPNO-MP2 Gradient
   Christoph Reimann      : Effective Core Potentials
   Marius Retegan         : Local ZFS, SOC
   Christoph Riplinger    : Optimizer, TS searches, QM/MM, DLPNO-CCSD(T), (RO)-DLPNO pert. Triples
   Tobias Risthaus        : Range-separated hybrids, TD-DFT gradient, RPA, STAB
   Michael Roemelt        : Original ROCIS implementation
   Masaaki Saitow         : Open-shell DLPNO-CCSD energy and density
   Barbara Sandhoefer     : DKH picture change effects
   Avijit Sen             : IP-ROCIS
   Kantharuban Sivalingam : CASSCF convergence, NEVPT2, FIC-MRCI
   Bernardo de Souza      : ESD, SOC TD-DFT
   Georgi Stoychev        : AutoAux, RI-MP2 NMR, DLPNO-MP2 response
   Willem Van den Heuvel  : Paramagnetic NMR
   Boris Wezisla          : Elementary symmetry handling
   Frank Wennmohs         : Technical directorship


 We gratefully acknowledge several colleagues who have allowed us to
 interface, adapt or use parts of their codes:
   Stefan Grimme, W. Hujo, H. Kruse, P. Pracht,  : VdW corrections, initial TS optimization,
                  C. Bannwarth, S. Ehlert          DFT functionals, gCP, sTDA/sTD-DF
   Ed Valeev, F. Pavosevic, A. Kumar             : LibInt (2-el integral package), F12 methods
   Garnet Chan, S. Sharma, J. Yang, R. Olivares  : DMRG
   Ulf Ekstrom                                   : XCFun DFT Library
   Mihaly Kallay                                 : mrcc  (arbitrary order and MRCC methods)
   Jiri Pittner, Ondrej Demel                    : Mk-CCSD
   Frank Weinhold                                : gennbo (NPA and NBO analysis)
   Christopher J. Cramer and Donald G. Truhlar   : smd solvation model
   Lars Goerigk                                  : TD-DFT with DH, B97 family of functionals
   V. Asgeirsson, H. Jonsson                     : NEB implementation
   FAccTs GmbH                                   : IRC, NEB, NEB-TS, DLPNO-Multilevel, CI-OPT
                                                   MM, QMMM, 2- and 3-layer-ONIOM, Crystal-QMMM,
                                                   LR-CPCM, SF, NACMEs, symmetry and pop. for TD-DFT,
                                                   nearIR, NL-DFT gradient (VV10), updates on ESD,
                                                   ML-optimized integration grids
   S Lehtola, MJT Oliveira, MAL Marques          : LibXC Library
   Liviu Ungur et al                             : ANISO software


 Your calculation uses the libint2 library for the computation of 2-el integrals
 For citations please refer to: http://libint.valeyev.net

 Your ORCA version has been built with support for libXC version: 5.1.0
 For citations please refer to: https://tddft.org/programs/libxc/

 This ORCA versions uses:
   CBLAS   interface :  Fast vector & matrix operations
   LAPACKE interface :  Fast linear algebra routines
   SCALAPACK package :  Parallel linear algebra routines
   Shared memory     :  Shared parallel matrices
   BLAS/LAPACK       :  OpenBLAS 0.3.15  USE64BITINT DYNAMIC_ARCH NO_AFFINITY Zen SINGLE_THREADED
        Core in use  :  Zen
   Copyright (c) 2011-2014, The OpenBLAS Project


================================================================================

----- Orbital basis set information -----
Your calculation utilizes the basis: def2-TZVP(-f)
   F. Weigend and R. Ahlrichs, Phys. Chem. Chem. Phys. 7, 3297 (2005).

----- AuxJ basis set information -----
Your calculation utilizes the auxiliary basis: def2/J
   F. Weigend, Phys. Chem. Chem. Phys. 8, 1057 (2006).

----- AuxC basis set information -----
Your calculation utilizes the auxiliary basis: def2-TZVP/C
  H-La, Hf-Rn : A. Hellweg, C. Hattig, S. Hofener and W. Klopper, Theor. Chem. Acc. 117, 587 (2007).
        Ce-Lu : J. Chmela and M. E. Harding, Mol. Phys. (2018).

================================================================================
                                        WARNINGS
                       Please study these warnings very carefully!
================================================================================

INFO   : Checking CIS options ...

WARNING: (CIS/TDDFT): Analytic excited state gradients requested
  ===> : turning on equilibrium dielectric conditions.

WARNING: Analytical Frequencies for this method not available!
  ===> : Switching to Numerical Frequencies!

WARNING: Geometry Optimization
  ===> : Switching off AutoStart
         For restart on a previous wavefunction, please use MOREAD

WARNING: CIS/ROCIS methods need fully converged wavefunctions
  ===> : Setting SCFConvForced true
         You can overwrite this default with %scf ConvForced false 


INFO   : the flag for use of the SHARK integral package has been found!

================================================================================
                                       INPUT FILE
================================================================================
NAME = HBQ-DCP_ES.inp
|  1> ! B3LYP/G VERYTIGHTOPT FREQ Def2-TZVP(-f) Def2-TZVP/C Def2/J RIJCOSX TightSCF CPCM(Water) AllPop SOSCF
|  2> %maxcore 3000
|  3> %tddft
|  4>     NRoots 3
|  5>     IRoot 1
|  6> end 
|  7> 
|  8> * xyz 1 1 
|  9>   C   -2.81495577109361     -1.24265619472307      1.88864724827788
| 10>   C   -2.02934298625347     -2.38345905690701      2.02207062107135
| 11>   C   -0.79088867335387     -2.39729070488215      1.42347147821046
| 12>   C   -2.33965438600524     -0.10460572944003      1.21125410760483
| 13>   C   -1.00612505927987     -0.01267943695739      0.75675217414353
| 14>   O   -3.28618231625579      0.84427855372326      0.99838932340565
| 15>   C   -0.27566408669967     -1.23693560340762      0.75648339519675
| 16>   C   0.94382586749089     -1.32165011068491      0.06430579801618
| 17>   C   1.41257028065095     -0.23624659391652     -0.64268859918925
| 18>   C   -0.36843837826841      1.15642055384742      0.23540522854046
| 19>   C   0.76522091805294      1.02803665105956     -0.57231058108086
| 20>   N   -0.85721494799805      2.46877575206714      0.51881347517812
| 21>   C   -0.53427913458361      3.46203689870436     -0.42198145858402
| 22>   C   0.48129368615875      3.30256581121200     -1.32593307452638
| 23>   C   1.23338649646528      2.13057077961481     -1.33899251636296
| 24>   C   -3.60344078885142      1.25004186506046     -0.30700388004437
| 25>   O   -2.94615943301553      0.91062655620036     -1.26565262191570
| 26>   N   -4.70098220658952      2.02274275995004     -0.31067921171496
| 27>   C   -5.19718322812253      2.50050287711381     -1.59861481428530
| 28>   C   -5.60664817028257      2.20583697545412      0.82187881000023
| 29>   H   -5.15891026126181      1.84802604826059      1.73984268819437
| 30>   H   -6.53755322665715      1.66565425174116      0.63366511311773
| 31>   H   -5.83524398442403      3.26707377668998      0.92240309494244
| 32>   H   -5.99556033793981      1.84999067572288     -1.96515580486180
| 33>   H   -4.38843913685075      2.51955663057075     -2.32143705579539
| 34>   H   -5.59580486170505      3.50518362473434     -1.46429050666731
| 35>   H   -0.17243622443406     -3.28501348206993      1.44664369554943
| 36>   H   -3.83301426982645     -1.21801549989359      2.25337087333790
| 37>   H   -2.40957519089801     -3.25152750394252      2.54094989423929
| 38>   H   1.48277493294460     -2.25953575054828      0.05205669319412
| 39>   H   2.30681470629950     -0.32480305241665     -1.24659035745628
| 40>   H   -1.08947447629071      4.38256594793816     -0.33428646636619
| 41>   H   0.70063823130131      4.11564600045843     -2.00436964742237
| 42>   H   2.11206687812117      2.02165156047933     -1.95702956854812
| 43>   P   -0.88251185367696      3.01248622666559      2.17608140688956
| 44>   O   -1.39906395108393      1.97487750667043      3.07891403500438
| 45>   O   -1.62467421818954      4.39496564354727      2.09922865391097
| 46>   O   0.57725808193415      3.54264190244787      2.47387447185200
| 47>   C   -3.08776260272363      4.51418731804637      2.08696532948394
| 48>   C   1.59929239651325      2.68862269875342      3.09101248555447
| 49>   C   -3.44601223245917      5.89839528292917      2.56838758918703
| 50>   H   -3.50086861153149      3.74253194685890      2.73412873831175
| 51>   H   -3.41729043571738      4.34513433932552      1.06286621810926
| 52>   H   -3.10523070509075      6.05601558406244      3.59217799763127
| 53>   H   -4.53148151656009      6.01081600121846      2.54397611688254
| 54>   H   -3.00676939271505      6.66172764414701      1.92511149249008
| 55>   C   2.74978156059016      3.57126983197793      3.50885936712074
| 56>   H   1.91108403154573      1.94818553717602      2.35489625340630
| 57>   H   1.14947400990105      2.18126613279225      3.94266618107361
| 58>   H   3.18164249157330      4.08535903899504      2.64946138700097
| 59>   H   3.52427997198430      2.95087880527144      3.96373311823555
| 60>   H   2.42712251516172      4.31233272830150      4.24112161045610
| 61> **                         ****END OF INPUT****
================================================================================

                       *****************************
                       * Geometry Optimization Run *
                       *****************************

Geometry optimization settings:
Update method            Update   .... BFGS
Choice of coordinates    CoordSys .... Z-matrix Internals
Initial Hessian          InHess   .... Almoef's Model

Convergence Tolerances:
Energy Change            TolE     ....  2.0000e-07 Eh
Max. Gradient            TolMAXG  ....  3.0000e-05 Eh/bohr
RMS Gradient             TolRMSG  ....  8.0000e-06 Eh/bohr
Max. Displacement        TolMAXD  ....  2.0000e-04 bohr
RMS Displacement         TolRMSD  ....  1.0000e-04 bohr
Strict Convergence                ....  False
------------------------------------------------------------------------------
                        ORCA OPTIMIZATION COORDINATE SETUP
------------------------------------------------------------------------------

The optimization will be done in new redundant internal coordinates
Making redundant internal coordinates   ...  (new redundants) done
Evaluating the initial hessian          ...  (Almloef) done
Evaluating the coordinates              ...  done
Calculating the B-matrix                .... done
Calculating the G-matrix                .... done
Diagonalizing the G-matrix              .... done
Small eigenvalue found = 1.573e-03
Small eigenvalue found = 4.333e-03
Small eigenvalue found = 5.020e-03
Small eigenvalue found = 6.954e-03
Small eigenvalue found = 8.204e-03
Small eigenvalue found = 1.091e-02
Small eigenvalue found = 1.933e-02
Small eigenvalue found = 2.261e-02
Small eigenvalue found = 2.638e-02
The first mode is                       ....  118
The number of degrees of freedom        ....  150

    -----------------------------------------------------------------
                    Redundant Internal Coordinates


    -----------------------------------------------------------------
         Definition                    Initial Value    Approx d2E/dq
    -----------------------------------------------------------------
      1. B(C   1,C   0)                  1.3916         0.621241   
      2. B(C   2,C   1)                  1.3756         0.658733   
      3. B(C   3,C   0)                  1.4071         0.586754   
      4. B(C   4,C   3)                  1.4119         0.576603   
      5. B(O   5,C   3)                  1.3571         0.631584   
      6. B(C   6,C   4)                  1.4256         0.548173   
      7. B(C   6,C   2)                  1.4341         0.531274   
      8. B(C   7,C   6)                  1.4048         0.591750   
      9. B(C   8,C   7)                  1.3776         0.654019   
     10. B(C   9,C   4)                  1.4301         0.539176   
     11. B(C  10,C   9)                  1.3979         0.606967   
     12. B(C  10,C   8)                  1.4221         0.555255   
     13. B(N  11,C   9)                  1.4288         0.485239   
     14. B(C  12,N  11)                  1.4057         0.528264   
     15. B(C  13,C  12)                  1.3689         0.675098   
     16. B(C  14,C  13)                  1.3926         0.618815   
     17. B(C  14,C  10)                  1.4222         0.555158   
     18. B(C  15,O   5)                  1.4033         0.532845   
     19. B(O  16,C  15)                  1.2109         1.080565   
     20. B(N  17,C  15)                  1.3423         0.666857   
     21. B(C  18,N  17)                  1.4606         0.431812   
     22. B(C  19,N  17)                  1.4617         0.430082   
     23. B(H  20,C  19)                  1.0822         0.370568   
     24. B(H  21,C  19)                  1.0926         0.356658   
     25. B(H  22,C  19)                  1.0902         0.359806   
     26. B(H  23,C  18)                  1.0931         0.355988   
     27. B(H  24,C  18)                  1.0849         0.366976   
     28. B(H  25,C  18)                  1.0892         0.361179   
     29. B(H  26,C   2)                  1.0822         0.370621   
     30. B(H  27,C   0)                  1.0817         0.371250   
     31. B(H  28,C   1)                  1.0804         0.372969   
     32. B(H  29,C   7)                  1.0818         0.371141   
     33. B(H  30,C   8)                  1.0827         0.369904   
     34. B(H  31,C  12)                  1.0786         0.375547   
     35. B(H  32,C  13)                  1.0814         0.371619   
     36. B(H  33,C  14)                  1.0798         0.373885   
     37. B(P  34,N  11)                  1.7444         0.511691   
     38. B(O  35,P  34)                  1.4692         1.406054   
     39. B(O  36,P  34)                  1.5710         0.967467   
     40. B(O  37,P  34)                  1.5814         0.931278   
     41. B(C  38,O  36)                  1.4680         0.420193   
     42. B(C  39,O  37)                  1.4679         0.420314   
     43. B(C  40,C  38)                  1.5087         0.403997   
     44. B(H  41,C  38)                  1.0885         0.362031   
     45. B(H  42,H  22)                  2.6511         0.000223   
     46. B(H  42,C  38)                  1.0890         0.361410   
     47. B(H  43,C  40)                  1.0905         0.359480   
     48. B(H  44,C  40)                  1.0915         0.358057   
     49. B(H  45,C  40)                  1.0906         0.359303   
     50. B(C  46,C  39)                  1.5091         0.403434   
     51. B(H  47,C  39)                  1.0896         0.360569   
     52. B(H  48,C  39)                  1.0886         0.361950   
     53. B(H  49,C  46)                  1.0906         0.359339   
     54. B(H  50,C  46)                  1.0916         0.357958   
     55. B(H  51,C  46)                  1.0906         0.359257   
     56. A(C   1,C   0,C   3)          121.2323         0.429943   
     57. A(C   1,C   0,H  27)          121.1774         0.354857   
     58. A(C   3,C   0,H  27)          117.5040         0.351442   
     59. A(C   0,C   1,C   2)          118.3458         0.438990   
     60. A(C   0,C   1,H  28)          120.3997         0.355135   
     61. A(C   2,C   1,H  28)          121.1807         0.358688   
     62. A(C   1,C   2,H  26)          120.8939         0.358303   
     63. A(C   6,C   2,H  26)          117.9282         0.345510   
     64. A(C   1,C   2,C   6)          121.1771         0.426814   
     65. A(C   4,C   3,O   5)          124.2476         0.427065   
     66. A(C   0,C   3,O   5)          113.9184         0.428403   
     67. A(C   0,C   3,C   4)          121.7818         0.424237   
     68. A(C   6,C   4,C   9)          118.2605         0.414139   
     69. A(C   3,C   4,C   9)          126.2808         0.417881   
     70. A(C   3,C   4,C   6)          115.3474         0.419116   
     71. A(C   3,O   5,C  15)          120.3824         0.418347   
     72. A(C   4,C   6,C   7)          119.7803         0.421059   
     73. A(C   2,C   6,C   7)          119.4875         0.418714   
     74. A(C   2,C   6,C   4)          120.7072         0.413054   
     75. A(C   6,C   7,H  29)          119.3637         0.351929   
     76. A(C   6,C   7,C   8)          120.0497         0.434596   
     77. A(C   8,C   7,H  29)          120.5158         0.357951   
     78. A(C  10,C   8,H  30)          118.4434         0.347972   
     79. A(C   7,C   8,H  30)          120.1898         0.357748   
     80. A(C   7,C   8,C  10)          121.3443         0.429653   
     81. A(C   4,C   9,C  10)          119.8134         0.421724   
     82. A(C  10,C   9,N  11)          118.4501         0.411207   
     83. A(C   4,C   9,N  11)          121.7363         0.402685   
     84. A(C   9,C  10,C  14)          120.4818         0.423931   
     85. A(C   8,C  10,C  14)          120.8425         0.417248   
     86. A(C   8,C  10,C   9)          118.6465         0.423944   
     87. A(C   9,N  11,P  34)          118.6659         0.423053   
     88. A(C   9,N  11,C  12)          115.9552         0.398667   
     89. A(C  12,N  11,P  34)          114.7682         0.429538   
     90. A(N  11,C  12,H  31)          115.4925         0.343832   
     91. A(N  11,C  12,C  13)          122.0103         0.425467   
     92. A(C  13,C  12,H  31)          122.3438         0.360614   
     93. A(C  12,C  13,H  32)          118.4995         0.359968   
     94. A(C  12,C  13,C  14)          120.3238         0.440628   
     95. A(C  14,C  13,H  32)          121.1529         0.354681   
     96. A(C  10,C  14,H  33)          119.8841         0.348590   
     97. A(C  10,C  14,C  13)          118.0079         0.425400   
     98. A(C  13,C  14,H  33)          121.9877         0.355047   
     99. A(O  16,C  15,N  17)          127.0880         0.480285   
    100. A(O   5,C  15,N  17)          110.7232         0.422423   
    101. A(O   5,C  15,O  16)          122.1866         0.460912   
    102. A(C  18,N  17,C  19)          115.5809         0.376884   
    103. A(C  15,N  17,C  19)          125.2143         0.406640   
    104. A(C  15,N  17,C  18)          117.9377         0.406929   
    105. A(N  17,C  18,H  25)          108.5006         0.330325   
    106. A(H  23,C  18,H  24)          109.3606         0.291179   
    107. A(H  23,C  18,H  25)          108.8431         0.290452   
    108. A(N  17,C  18,H  24)          109.8778         0.331197   
    109. A(N  17,C  18,H  23)          110.4354         0.329536   
    110. A(H  24,C  18,H  25)          109.8040         0.291843   
    111. A(H  21,C  19,H  22)          108.5715         0.290364   
    112. A(H  20,C  19,H  22)          109.2919         0.292115   
    113. A(N  17,C  19,H  22)          108.8626         0.329898   
    114. A(H  20,C  19,H  21)          109.5817         0.291712   
    115. A(N  17,C  19,H  21)          109.4210         0.329420   
    116. A(N  17,C  19,H  20)          111.0685         0.331511   
    117. A(N  11,P  34,O  36)          103.5722         0.513324   
    118. A(N  11,P  34,O  35)          111.6410         0.550792   
    119. A(O  36,P  34,O  37)           98.6433         0.574916   
    120. A(O  35,P  34,O  37)          116.4619         0.617824   
    121. A(N  11,P  34,O  37)          105.6657         0.509678   
    122. A(O  35,P  34,O  36)          119.0429         0.622406   
    123. A(P  34,O  36,C  38)          122.8692         0.462490   
    124. A(P  34,O  37,C  39)          121.7924         0.459305   
    125. A(H  41,C  38,H  42)          109.5242         0.291250   
    126. A(C  40,C  38,H  42)          111.7559         0.328723   
    127. A(O  36,C  38,H  42)          107.2674         0.328875   
    128. A(C  40,C  38,H  41)          111.7508         0.328816   
    129. A(O  36,C  38,H  41)          108.4029         0.328968   
    130. A(O  36,C  38,C  40)          107.9696         0.373429   
    131. A(C  46,C  39,H  48)          111.7771         0.328728   
    132. A(O  37,C  39,H  48)          108.2018         0.328971   
    133. A(C  46,C  39,H  47)          111.4910         0.328521   
    134. A(O  37,C  39,H  47)          108.0923         0.328764   
    135. A(O  37,C  39,C  46)          107.8745         0.373358   
    136. A(H  47,C  39,H  48)          109.2716         0.291133   
    137. A(H  44,C  40,H  45)          108.3748         0.290479   
    138. A(H  43,C  40,H  45)          109.0708         0.290660   
    139. A(C  38,C  40,H  45)          110.9968         0.328406   
    140. A(H  43,C  40,H  44)          108.4742         0.290501   
    141. A(C  38,C  40,H  44)          108.8743         0.328218   
    142. A(C  38,C  40,H  43)          110.9773         0.328432   
    143. A(H  50,C  46,H  51)          108.4385         0.290460   
    144. A(H  49,C  46,H  51)          109.0223         0.290636   
    145. A(C  39,C  46,H  51)          110.9641         0.328323   
    146. A(H  49,C  46,H  50)          108.3796         0.290471   
    147. A(C  39,C  46,H  50)          108.8975         0.328127   
    148. A(C  39,C  46,H  49)          111.0645         0.328336   
    149. D(H  28,C   1,C   0,H  27)     -3.1758         0.026713   
    150. D(H  28,C   1,C   0,C   3)   -179.7120         0.026713   
    151. D(C   2,C   1,C   0,C   3)     -2.7997         0.026713   
    152. D(C   2,C   1,C   0,H  27)    173.7365         0.026713   
    153. D(H  26,C   2,C   1,H  28)      0.8526         0.030271   
    154. D(H  26,C   2,C   1,C   0)   -176.0344         0.030271   
    155. D(C   6,C   2,C   1,H  28)   -178.8098         0.030271   
    156. D(C   6,C   2,C   1,C   0)      4.3032         0.030271   
    157. D(C   4,C   3,C   0,H  27)    176.7690         0.023679   
    158. D(O   5,C   3,C   0,H  27)     -5.7543         0.023679   
    159. D(C   4,C   3,C   0,C   1)     -6.5720         0.023679   
    160. D(O   5,C   3,C   0,C   1)    170.9047         0.023679   
    161. D(C   9,C   4,C   3,C   0)   -170.3838         0.022830   
    162. D(C   6,C   4,C   3,C   0)     13.5425         0.022830   
    163. D(C   6,C   4,C   3,O   5)   -163.6669         0.022830   
    164. D(C   9,C   4,C   3,O   5)     12.4068         0.022830   
    165. D(C  15,O   5,C   3,C   4)     56.9044         0.029347   
    166. D(C  15,O   5,C   3,C   0)   -120.5007         0.029347   
    167. D(C   7,C   6,C   4,C   9)    -10.1271         0.020552   
    168. D(C   7,C   6,C   4,C   3)    166.2799         0.020552   
    169. D(C   2,C   6,C   4,C   9)    171.7011         0.020552   
    170. D(C   4,C   6,C   2,H  26)   -176.3475         0.019268   
    171. D(C   7,C   6,C   2,H  26)      5.4754         0.019268   
    172. D(C   7,C   6,C   2,C   1)   -174.8524         0.019268   
    173. D(C   2,C   6,C   4,C   3)    -11.8919         0.020552   
    174. D(C   4,C   6,C   2,C   1)      3.3246         0.019268   
    175. D(H  29,C   7,C   6,C   4)   -178.7856         0.024105   
    176. D(H  29,C   7,C   6,C   2)     -0.5914         0.024105   
    177. D(C   8,C   7,C   6,C   4)     -1.8285         0.024105   
    178. D(C   8,C   7,C   6,C   2)    176.3657         0.024105   
    179. D(C  10,C   8,C   7,C   6)      7.0770         0.029808   
    180. D(H  30,C   8,C   7,H  29)      2.2492         0.029808   
    181. D(H  30,C   8,C   7,C   6)   -174.6725         0.029808   
    182. D(C  10,C   8,C   7,H  29)   -176.0013         0.029808   
    183. D(N  11,C   9,C   4,C   6)   -162.6510         0.019862   
    184. D(N  11,C   9,C   4,C   3)     21.3777         0.019862   
    185. D(C  10,C   9,C   4,C   6)     17.2338         0.019862   
    186. D(C  10,C   9,C   4,C   3)   -158.7376         0.019862   
    187. D(C  14,C  10,C   9,N  11)    -14.3179         0.025430   
    188. D(C   8,C  10,C   9,N  11)    167.6324         0.025430   
    189. D(C   8,C  10,C   9,C   4)    -12.2561         0.025430   
    190. D(C  14,C  10,C   8,H  30)      3.7001         0.021105   
    191. D(C  14,C  10,C   8,C   7)   -178.0197         0.021105   
    192. D(C   9,C  10,C   8,H  30)   -178.2574         0.021105   
    193. D(C  14,C  10,C   9,C   4)    165.7936         0.025430   
    194. D(C   9,C  10,C   8,C   7)      0.0228         0.021105   
    195. D(P  34,N  11,C   9,C  10)   -117.8860         0.018584   
    196. D(P  34,N  11,C   9,C   4)     62.0002         0.018584   
    197. D(C  12,N  11,C   9,C  10)     24.9731         0.018584   
    198. D(C  12,N  11,C   9,C   4)   -155.1407         0.018584   
    199. D(H  31,C  12,N  11,P  34)    -49.6141         0.022155   
    200. D(H  31,C  12,N  11,C   9)    166.0790         0.022155   
    201. D(C  13,C  12,N  11,P  34)    125.9816         0.022155   
    202. D(C  13,C  12,N  11,C   9)    -18.3252         0.022155   
    203. D(H  32,C  13,C  12,H  31)     -2.8565         0.031911   
    204. D(H  32,C  13,C  12,N  11)   -178.1504         0.031911   
    205. D(C  14,C  13,C  12,H  31)    175.3928         0.031911   
    206. D(C  14,C  13,C  12,N  11)      0.0989         0.031911   
    207. D(C  10,C  14,C  13,C  12)     11.4274         0.026492   
    208. D(H  33,C  14,C  10,C   9)    179.7902         0.021098   
    209. D(H  33,C  14,C  10,C   8)     -2.2032         0.021098   
    210. D(C  13,C  14,C  10,C   9)     -4.1167         0.021098   
    211. D(C  13,C  14,C  10,C   8)    173.8898         0.021098   
    212. D(H  33,C  14,C  13,H  32)      5.6356         0.026492   
    213. D(H  33,C  14,C  13,C  12)   -172.5666         0.026492   
    214. D(C  10,C  14,C  13,H  32)   -170.3704         0.026492   
    215. D(N  17,C  15,O   5,C   3)    169.8790         0.020480   
    216. D(O  16,C  15,O   5,C   3)     -9.6194         0.020480   
    217. D(C  19,N  17,C  15,O  16)    167.8598         0.036458   
    218. D(C  19,N  17,C  15,O   5)    -11.6080         0.036458   
    219. D(C  18,N  17,C  15,O  16)      1.3249         0.036458   
    220. D(C  18,N  17,C  15,O   5)   -178.1430         0.036458   
    221. D(H  25,C  18,N  17,C  19)     47.7712         0.015897   
    222. D(H  25,C  18,N  17,C  15)   -144.4048         0.015897   
    223. D(H  24,C  18,N  17,C  19)    167.8295         0.015897   
    224. D(H  24,C  18,N  17,C  15)    -24.3465         0.015897   
    225. D(H  23,C  18,N  17,C  19)    -71.4463         0.015897   
    226. D(H  23,C  18,N  17,C  15)     96.3777         0.015897   
    227. D(H  22,C  19,N  17,C  18)    -58.3455         0.015770   
    228. D(H  22,C  19,N  17,C  15)    134.8380         0.015770   
    229. D(H  21,C  19,N  17,C  18)     60.1651         0.015770   
    230. D(H  21,C  19,N  17,C  15)   -106.6514         0.015770   
    231. D(H  20,C  19,N  17,C  18)   -178.7270         0.015770   
    232. D(H  20,C  19,N  17,C  15)     14.4565         0.015770   
    233. D(O  37,P  34,N  11,C  12)    -60.0821         0.005616   
    234. D(O  37,P  34,N  11,C   9)     83.1999         0.005616   
    235. D(O  36,P  34,N  11,C  12)     43.1129         0.005616   
    236. D(O  36,P  34,N  11,C   9)   -173.6050         0.005616   
    237. D(O  35,P  34,N  11,C  12)    172.3894         0.005616   
    238. D(O  35,P  34,N  11,C   9)    -44.3286         0.005616   
    239. D(C  38,O  36,P  34,O  37)   -168.1973         0.016081   
    240. D(C  38,O  36,P  34,O  35)    -41.3304         0.016081   
    241. D(C  38,O  36,P  34,N  11)     83.2807         0.016081   
    242. D(C  39,O  37,P  34,O  36)    158.5861         0.014930   
    243. D(C  39,O  37,P  34,O  35)     29.9647         0.014930   
    244. D(C  39,O  37,P  34,N  11)    -94.6067         0.014930   
    245. D(H  42,C  38,O  36,P  34)    -82.2073         0.013915   
    246. D(H  41,C  38,O  36,P  34)     35.9739         0.013915   
    247. D(C  40,C  38,O  36,P  34)    157.2043         0.013915   
    248. D(H  48,C  39,O  37,P  34)    -46.5853         0.013923   
    249. D(H  47,C  39,O  37,P  34)     71.6392         0.013923   
    250. D(C  46,C  39,O  37,P  34)   -167.6757         0.013923   
    251. D(H  45,C  40,C  38,H  41)    178.6664         0.012941   
    252. D(H  45,C  40,C  38,O  36)     59.5406         0.012941   
    253. D(H  44,C  40,C  38,H  42)     61.0157         0.012941   
    254. D(H  44,C  40,C  38,H  41)    -62.1211         0.012941   
    255. D(H  44,C  40,C  38,O  36)    178.7532         0.012941   
    256. D(H  43,C  40,C  38,H  42)   -179.6612         0.012941   
    257. D(H  43,C  40,C  38,H  41)     57.2020         0.012941   
    258. D(H  45,C  40,C  38,H  42)    -58.1968         0.012941   
    259. D(H  43,C  40,C  38,O  36)    -61.9237         0.012941   
    260. D(H  51,C  46,C  39,H  48)    -57.6845         0.012906   
    261. D(H  51,C  46,C  39,O  37)     61.1493         0.012906   
    262. D(H  50,C  46,C  39,H  48)     61.6012         0.012906   
    263. D(H  50,C  46,C  39,H  47)    -61.0324         0.012906   
    264. D(H  50,C  46,C  39,O  37)   -179.5649         0.012906   
    265. D(H  49,C  46,C  39,H  48)   -179.1245         0.012906   
    266. D(H  51,C  46,C  39,H  47)    179.6818         0.012906   
    267. D(H  49,C  46,C  39,H  47)     58.2418         0.012906   
    268. D(H  49,C  46,C  39,O  37)    -60.2907         0.012906   
    -----------------------------------------------------------------

Number of atoms                         .... 52
Number of degrees of freedom            .... 268

         *************************************************************
         *                GEOMETRY OPTIMIZATION CYCLE   1            *
         *************************************************************
---------------------------------
CARTESIAN COORDINATES (ANGSTROEM)
---------------------------------
  C     -2.814956   -1.242656    1.888647
  C     -2.029343   -2.383459    2.022071
  C     -0.790889   -2.397291    1.423471
  C     -2.339654   -0.104606    1.211254
  C     -1.006125   -0.012679    0.756752
  O     -3.286182    0.844279    0.998389
  C     -0.275664   -1.236936    0.756483
  C      0.943826   -1.321650    0.064306
  C      1.412570   -0.236247   -0.642689
  C     -0.368438    1.156421    0.235405
  C      0.765221    1.028037   -0.572311
  N     -0.857215    2.468776    0.518813
  C     -0.534279    3.462037   -0.421981
  C      0.481294    3.302566   -1.325933
  C      1.233386    2.130571   -1.338993
  C     -3.603441    1.250042   -0.307004
  O     -2.946159    0.910627   -1.265653
  N     -4.700982    2.022743   -0.310679
  C     -5.197183    2.500503   -1.598615
  C     -5.606648    2.205837    0.821879
  H     -5.158910    1.848026    1.739843
  H     -6.537553    1.665654    0.633665
  H     -5.835244    3.267074    0.922403
  H     -5.995560    1.849991   -1.965156
  H     -4.388439    2.519557   -2.321437
  H     -5.595805    3.505184   -1.464291
  H     -0.172436   -3.285013    1.446644
  H     -3.833014   -1.218015    2.253371
  H     -2.409575   -3.251528    2.540950
  H      1.482775   -2.259536    0.052057
  H      2.306815   -0.324803   -1.246590
  H     -1.089474    4.382566   -0.334286
  H      0.700638    4.115646   -2.004370
  H      2.112067    2.021652   -1.957030
  P     -0.882512    3.012486    2.176081
  O     -1.399064    1.974878    3.078914
  O     -1.624674    4.394966    2.099229
  O      0.577258    3.542642    2.473874
  C     -3.087763    4.514187    2.086965
  C      1.599292    2.688623    3.091012
  C     -3.446012    5.898395    2.568388
  H     -3.500869    3.742532    2.734129
  H     -3.417290    4.345134    1.062866
  H     -3.105231    6.056016    3.592178
  H     -4.531482    6.010816    2.543976
  H     -3.006769    6.661728    1.925111
  C      2.749782    3.571270    3.508859
  H      1.911084    1.948186    2.354896
  H      1.149474    2.181266    3.942666
  H      3.181642    4.085359    2.649461
  H      3.524280    2.950879    3.963733
  H      2.427123    4.312333    4.241122

----------------------------
CARTESIAN COORDINATES (A.U.)
----------------------------
  NO LB      ZA    FRAG     MASS         X           Y           Z
   0 C     6.0000    0    12.011   -5.319495   -2.348280    3.569026
   1 C     6.0000    0    12.011   -3.834902   -4.504085    3.821160
   2 C     6.0000    0    12.011   -1.494563   -4.530223    2.689971
   3 C     6.0000    0    12.011   -4.421306   -0.197676    2.288939
   4 C     6.0000    0    12.011   -1.901301   -0.023961    1.430054
   5 O     8.0000    0    15.999   -6.209985    1.595455    1.886682
   6 C     6.0000    0    12.011   -0.520930   -2.337470    1.429546
   7 C     6.0000    0    12.011    1.783572   -2.497557    0.121520
   8 C     6.0000    0    12.011    2.669371   -0.446441   -1.214505
   9 C     6.0000    0    12.011   -0.696248    2.185318    0.444851
  10 C     6.0000    0    12.011    1.446058    1.942708   -1.081510
  11 N     7.0000    0    14.007   -1.619901    4.665310    0.980415
  12 C     6.0000    0    12.011   -1.009641    6.542302   -0.797429
  13 C     6.0000    0    12.011    0.909513    6.240945   -2.505650
  14 C     6.0000    0    12.011    2.330763    4.026195   -2.530329
  15 C     6.0000    0    12.011   -6.809516    2.362237   -0.580153
  16 O     8.0000    0    15.999   -5.567434    1.720835   -2.391737
  17 N     7.0000    0    14.007   -8.883569    3.822430   -0.587099
  18 C     6.0000    0    12.011   -9.821253    4.725266   -3.020944
  19 C     6.0000    0    12.011  -10.595030    4.168428    1.553126
  20 H     1.0000    0     1.008   -9.748928    3.492263    3.287826
  21 H     1.0000    0     1.008  -12.354185    3.147630    1.197454
  22 H     1.0000    0     1.008  -11.027013    6.173875    1.743089
  23 H     1.0000    0     1.008  -11.329967    3.495976   -3.713606
  24 H     1.0000    0     1.008   -8.292948    4.761272   -4.386880
  25 H     1.0000    0     1.008  -10.574539    6.623837   -2.767108
  26 H     1.0000    0     1.008   -0.325857   -6.207776    2.733760
  27 H     1.0000    0     1.008   -7.243347   -2.301716    4.258254
  28 H     1.0000    0     1.008   -4.553437   -6.144496    4.801699
  29 H     1.0000    0     1.008    2.802039   -4.269904    0.098373
  30 H     1.0000    0     1.008    4.359248   -0.613789   -2.355714
  31 H     1.0000    0     1.008   -2.058808    8.281849   -0.631710
  32 H     1.0000    0     1.008    1.324014    7.777444   -3.787710
  33 H     1.0000    0     1.008    3.991228    3.820368   -3.698250
  34 P    15.0000    0    30.974   -1.667706    5.692774    4.112198
  35 O     8.0000    0    15.999   -2.643848    3.731978    5.818304
  36 O     8.0000    0    15.999   -3.070189    8.305281    3.966967
  37 O     8.0000    0    15.999    1.090860    6.694623    4.674945
  38 C     6.0000    0    12.011   -5.835026    8.530578    3.943793
  39 C     6.0000    0    12.011    3.022225    5.080761    5.841167
  40 C     6.0000    0    12.011   -6.512019   11.146352    4.853549
  41 H     1.0000    0     1.008   -6.615683    7.072360    5.166755
  42 H     1.0000    0     1.008   -6.457743    8.211114    2.008526
  43 H     1.0000    0     1.008   -5.868036   11.444211    6.788233
  44 H     1.0000    0     1.008   -8.563259   11.358796    4.807418
  45 H     1.0000    0     1.008   -5.681971   12.588841    3.637933
  46 C     6.0000    0    12.011    5.196334    6.748722    6.630783
  47 H     1.0000    0     1.008    3.611425    3.681537    4.450109
  48 H     1.0000    0     1.008    2.172191    4.121996    7.450559
  49 H     1.0000    0     1.008    6.012433    7.720210    5.006756
  50 H     1.0000    0     1.008    6.659924    5.576353    7.490370
  51 H     1.0000    0     1.008    4.586597    8.149128    8.014558

--------------------------------
INTERNAL COORDINATES (ANGSTROEM)
--------------------------------
 C      0   0   0     0.000000000000     0.00000000     0.00000000
 C      1   0   0     1.391553238104     0.00000000     0.00000000
 C      2   1   0     1.375602171218   118.34579207     0.00000000
 C      1   2   3     1.407100470908   121.23226412   357.20027371
 C      4   1   2     1.411850883063   121.78177039   353.42797589
 O      4   1   2     1.357058555086   113.91838891   170.90471125
 C      5   4   1     1.425614416943   115.34740564    13.54253466
 C      7   5   4     1.404792554847   119.78028926   166.27992679
 C      8   7   5     1.377556966794   120.04973772   358.17153458
 C      5   4   1     1.430119480788   126.28081844   189.61624578
 C     10   5   4     1.397880773079   119.81344934   201.26242260
 N     10   5   4     1.428810321797   121.73630505    21.37768537
 C     12  10   5     1.405685011799   115.95523102   204.85934925
 C     13  12  10     1.368922096374   122.01025362   341.67475181
 C     14  13  12     1.392618576073   120.32384318     0.09892562
 C      6   4   1     1.403334678142   120.38236079   239.49929863
 O     16   6   4     1.210879408905   122.18657356   350.38061711
 N     16   6   4     1.342265750392   110.72320339   169.87904691
 C     18  16   6     1.460564377113   117.93771089   181.85698880
 C     18  16   6     1.461657279288   125.21426623   348.39195697
 H     20  18  16     1.082199416218   111.06850208    14.45650972
 H     20  18  16     1.092614293644   109.42096889   253.34863707
 H     20  18  16     1.090222328887   108.86256150   134.83802429
 H     19  18  16     1.093125990639   110.43540034    96.37772117
 H     19  18  16     1.084851161916   109.87778503   335.65351581
 H     19  18  16     1.089185765155   108.50058187   215.59518659
 H      3   2   1     1.082160853279   120.89388527   183.96560261
 H      1   2   3     1.081699400647   121.17735739   173.73646724
 H      2   1   3     1.080442066152   120.39965814   183.08776430
 H      8   7   5     1.081778909567   119.36365057   181.21436076
 H      9   8   7     1.082687707875   120.18984880   185.32751425
 H     13  12  10     1.078566645876   115.49253287   166.07900239
 H     14  13  12     1.081428502987   118.49954641   181.84963722
 H     15  14  13     1.079774239032   121.98770626   187.43339720
 P     12  10   5     1.744361777586   118.66589148    62.00021606
 O     35  12  10     1.469205458584   111.64099978   315.67144853
 O     35  12  10     1.570974429786   103.57216996   186.39497301
 O     35  12  10     1.581351957983   105.66566802    83.19994023
 C     37  35  12     1.467989038704   122.86919406    83.28071095
 C     38  35  12     1.467910851657   121.79237265   265.39333052
 C     39  37  35     1.508688794745   107.96961185   157.20426400
 H     39  37  35     1.088544470438   108.40294987    35.97393681
 H     39  37  35     1.089011704368   107.26741709   277.79270935
 H     41  39  37     1.090469169279   110.97726946   298.07625145
 H     41  39  37     1.091548397739   108.87429561   178.75316181
 H     41  39  37     1.090602907813   110.99675952    59.54062647
 C     40  38  35     1.509068353284   107.87449094   192.32428275
 H     40  38  35     1.089645961381   108.09231504    71.63922606
 H     40  38  35     1.088605200727   108.20176571   313.41466314
 H     47  40  38     1.090576207660   111.06446869   299.70930004
 H     47  40  38     1.091623994205   108.89752494   180.43505063
 H     47  40  38     1.090637918339   110.96405491    61.14929290

---------------------------
INTERNAL COORDINATES (A.U.)
---------------------------
 C      0   0   0     0.000000000000     0.00000000     0.00000000
 C      1   0   0     2.629654520789     0.00000000     0.00000000
 C      2   1   0     2.599511372829   118.34579207     0.00000000
 C      1   2   3     2.659034532927   121.23226412   357.20027371
 C      4   1   2     2.668011510924   121.78177039   353.42797589
 O      4   1   2     2.564469016807   113.91838891   170.90471125
 C      5   4   1     2.694020820593   115.34740564    13.54253466
 C      7   5   4     2.654673203632   119.78028926   166.27992679
 C      8   7   5     2.603205401115   120.04973772   358.17153458
 C      5   4   1     2.702534157475   126.28081844   189.61624578
 C     10   5   4     2.641611828993   119.81344934   201.26242260
 N     10   5   4     2.700060205516   121.73630505    21.37768537
 C     12  10   5     2.656359702859   115.95523102   204.85934925
 C     13  12  10     2.586887860820   122.01025362   341.67475181
 C     14  13  12     2.631667717790   120.32384318     0.09892562
 C      6   4   1     2.651918215922   120.38236079   239.49929863
 O     16   6   4     2.288230464034   122.18657356   350.38061711
 N     16   6   4     2.536514667184   110.72320339   169.87904691
 C     18  16   6     2.760066673705   117.93771089   181.85698880
 C     18  16   6     2.762131959506   125.21426623   348.39195697
 H     20  18  16     2.045060518941   111.06850208    14.45650972
 H     20  18  16     2.064741784996   109.42096889   253.34863707
 H     20  18  16     2.060221626682   108.86256150   134.83802429
 H     19  18  16     2.065708752180   110.43540034    96.37772117
 H     19  18  16     2.050071592087   109.87778503   335.65351581
 H     19  18  16     2.058262805109   108.50058187   215.59518659
 H      3   2   1     2.044987645548   120.89388527   183.96560261
 H      1   2   3     2.044115626450   121.17735739   173.73646724
 H      2   1   3     2.041739608595   120.39965814   183.08776430
 H      8   7   5     2.044265876534   119.36365057   181.21436076
 H      9   8   7     2.045983256447   120.18984880   185.32751425
 H     13  12  10     2.038195577888   115.49253287   166.07900239
 H     14  13  12     2.043603704061   118.49954641   181.84963722
 H     15  14  13     2.040477598234   121.98770626   187.43339720
 P     12  10   5     3.296366038118   118.66589148    62.00021606
 O     35  12  10     2.776395951187   111.64099978   315.67144853
 O     35  12  10     2.968711435688   103.57216996   186.39497301
 O     35  12  10     2.988322121929   105.66566802    83.19994023
 C     37  35  12     2.774097250749   122.86919406    83.28071095
 C     38  35  12     2.773949498643   121.79237265   265.39333052
 C     39  37  35     2.851008643383   107.96961185   157.20426400
 H     39  37  35     2.057050933722   108.40294987    35.97393681
 H     39  37  35     2.057933877890   107.26741709   277.79270935
 H     41  39  37     2.060688087421   110.97726946   298.07625145
 H     41  39  37     2.062727533648   108.87429561   178.75316181
 H     41  39  37     2.060940816625   110.99675952    59.54062647
 C     40  38  35     2.851725905074   107.87449094   192.32428275
 H     40  38  35     2.059132449943   108.09231504    71.63922606
 H     40  38  35     2.057165697336   108.20176571   313.41466314
 H     47  40  38     2.060890360649   111.06446869   299.70930004
 H     47  40  38     2.062870390264   108.89752494   180.43505063
 H     47  40  38     2.061006976931   110.96405491    61.14929290

---------------------
BASIS SET INFORMATION
---------------------
There are 5 groups of distinct atoms

 Group   1 Type C   : 11s6p2d contracted to 5s3p2d pattern {62111/411/11}
 Group   2 Type O   : 11s6p2d contracted to 5s3p2d pattern {62111/411/11}
 Group   3 Type N   : 11s6p2d contracted to 5s3p2d pattern {62111/411/11}
 Group   4 Type H   : 5s1p contracted to 3s1p pattern {311/1}
 Group   5 Type P   : 14s9p3d contracted to 5s5p2d pattern {73211/51111/21}

Atom   0C    basis set group =>   1
Atom   1C    basis set group =>   1
Atom   2C    basis set group =>   1
Atom   3C    basis set group =>   1
Atom   4C    basis set group =>   1
Atom   5O    basis set group =>   2
Atom   6C    basis set group =>   1
Atom   7C    basis set group =>   1
Atom   8C    basis set group =>   1
Atom   9C    basis set group =>   1
Atom  10C    basis set group =>   1
Atom  11N    basis set group =>   3
Atom  12C    basis set group =>   1
Atom  13C    basis set group =>   1
Atom  14C    basis set group =>   1
Atom  15C    basis set group =>   1
Atom  16O    basis set group =>   2
Atom  17N    basis set group =>   3
Atom  18C    basis set group =>   1
Atom  19C    basis set group =>   1
Atom  20H    basis set group =>   4
Atom  21H    basis set group =>   4
Atom  22H    basis set group =>   4
Atom  23H    basis set group =>   4
Atom  24H    basis set group =>   4
Atom  25H    basis set group =>   4
Atom  26H    basis set group =>   4
Atom  27H    basis set group =>   4
Atom  28H    basis set group =>   4
Atom  29H    basis set group =>   4
Atom  30H    basis set group =>   4
Atom  31H    basis set group =>   4
Atom  32H    basis set group =>   4
Atom  33H    basis set group =>   4
Atom  34P    basis set group =>   5
Atom  35O    basis set group =>   2
Atom  36O    basis set group =>   2
Atom  37O    basis set group =>   2
Atom  38C    basis set group =>   1
Atom  39C    basis set group =>   1
Atom  40C    basis set group =>   1
Atom  41H    basis set group =>   4
Atom  42H    basis set group =>   4
Atom  43H    basis set group =>   4
Atom  44H    basis set group =>   4
Atom  45H    basis set group =>   4
Atom  46C    basis set group =>   1
Atom  47H    basis set group =>   4
Atom  48H    basis set group =>   4
Atom  49H    basis set group =>   4
Atom  50H    basis set group =>   4
Atom  51H    basis set group =>   4
---------------------------------
AUXILIARY/J BASIS SET INFORMATION
---------------------------------
There are 5 groups of distinct atoms

 Group   1 Type C   : 12s5p4d2f1g contracted to 6s4p3d1f1g pattern {711111/2111/211/2/1}
 Group   2 Type O   : 12s5p4d2f1g contracted to 6s4p3d1f1g pattern {711111/2111/211/2/1}
 Group   3 Type N   : 12s5p4d2f1g contracted to 6s4p3d1f1g pattern {711111/2111/211/2/1}
 Group   4 Type H   : 5s2p1d contracted to 3s1p1d pattern {311/2/1}
 Group   5 Type P   : 14s5p5d2f1g contracted to 8s4p3d1f1g pattern {71111111/2111/311/2/1}

Atom   0C    basis set group =>   1
Atom   1C    basis set group =>   1
Atom   2C    basis set group =>   1
Atom   3C    basis set group =>   1
Atom   4C    basis set group =>   1
Atom   5O    basis set group =>   2
Atom   6C    basis set group =>   1
Atom   7C    basis set group =>   1
Atom   8C    basis set group =>   1
Atom   9C    basis set group =>   1
Atom  10C    basis set group =>   1
Atom  11N    basis set group =>   3
Atom  12C    basis set group =>   1
Atom  13C    basis set group =>   1
Atom  14C    basis set group =>   1
Atom  15C    basis set group =>   1
Atom  16O    basis set group =>   2
Atom  17N    basis set group =>   3
Atom  18C    basis set group =>   1
Atom  19C    basis set group =>   1
Atom  20H    basis set group =>   4
Atom  21H    basis set group =>   4
Atom  22H    basis set group =>   4
Atom  23H    basis set group =>   4
Atom  24H    basis set group =>   4
Atom  25H    basis set group =>   4
Atom  26H    basis set group =>   4
Atom  27H    basis set group =>   4
Atom  28H    basis set group =>   4
Atom  29H    basis set group =>   4
Atom  30H    basis set group =>   4
Atom  31H    basis set group =>   4
Atom  32H    basis set group =>   4
Atom  33H    basis set group =>   4
Atom  34P    basis set group =>   5
Atom  35O    basis set group =>   2
Atom  36O    basis set group =>   2
Atom  37O    basis set group =>   2
Atom  38C    basis set group =>   1
Atom  39C    basis set group =>   1
Atom  40C    basis set group =>   1
Atom  41H    basis set group =>   4
Atom  42H    basis set group =>   4
Atom  43H    basis set group =>   4
Atom  44H    basis set group =>   4
Atom  45H    basis set group =>   4
Atom  46C    basis set group =>   1
Atom  47H    basis set group =>   4
Atom  48H    basis set group =>   4
Atom  49H    basis set group =>   4
Atom  50H    basis set group =>   4
Atom  51H    basis set group =>   4
---------------------------------
AUXILIARY/C BASIS SET INFORMATION
---------------------------------
There are 5 groups of distinct atoms

 Group   1 Type C   : 8s6p5d3f1g contracted to 8s6p4d3f1g pattern {11111111/111111/2111/111/1}
 Group   2 Type O   : 8s6p5d3f1g contracted to 8s6p4d3f1g pattern {11111111/111111/2111/111/1}
 Group   3 Type N   : 8s6p5d3f1g contracted to 8s6p4d3f1g pattern {11111111/111111/2111/111/1}
 Group   4 Type H   : 4s3p2d contracted to 4s2p1d pattern {1111/21/2}
 Group   5 Type P   : 10s7p7d5f2g contracted to 9s7p6d5f2g pattern {211111111/1111111/211111/11111/11}

Atom   0C    basis set group =>   1
Atom   1C    basis set group =>   1
Atom   2C    basis set group =>   1
Atom   3C    basis set group =>   1
Atom   4C    basis set group =>   1
Atom   5O    basis set group =>   2
Atom   6C    basis set group =>   1
Atom   7C    basis set group =>   1
Atom   8C    basis set group =>   1
Atom   9C    basis set group =>   1
Atom  10C    basis set group =>   1
Atom  11N    basis set group =>   3
Atom  12C    basis set group =>   1
Atom  13C    basis set group =>   1
Atom  14C    basis set group =>   1
Atom  15C    basis set group =>   1
Atom  16O    basis set group =>   2
Atom  17N    basis set group =>   3
Atom  18C    basis set group =>   1
Atom  19C    basis set group =>   1
Atom  20H    basis set group =>   4
Atom  21H    basis set group =>   4
Atom  22H    basis set group =>   4
Atom  23H    basis set group =>   4
Atom  24H    basis set group =>   4
Atom  25H    basis set group =>   4
Atom  26H    basis set group =>   4
Atom  27H    basis set group =>   4
Atom  28H    basis set group =>   4
Atom  29H    basis set group =>   4
Atom  30H    basis set group =>   4
Atom  31H    basis set group =>   4
Atom  32H    basis set group =>   4
Atom  33H    basis set group =>   4
Atom  34P    basis set group =>   5
Atom  35O    basis set group =>   2
Atom  36O    basis set group =>   2
Atom  37O    basis set group =>   2
Atom  38C    basis set group =>   1
Atom  39C    basis set group =>   1
Atom  40C    basis set group =>   1
Atom  41H    basis set group =>   4
Atom  42H    basis set group =>   4
Atom  43H    basis set group =>   4
Atom  44H    basis set group =>   4
Atom  45H    basis set group =>   4
Atom  46C    basis set group =>   1
Atom  47H    basis set group =>   4
Atom  48H    basis set group =>   4
Atom  49H    basis set group =>   4
Atom  50H    basis set group =>   4
Atom  51H    basis set group =>   4
------------------------------------------------------------------------------
                           ORCA GTO INTEGRAL CALCULATION
                           -- RI-GTO INTEGRALS CHOSEN --
------------------------------------------------------------------------------
------------------------------------------------------------------------------
                   ___                                                        
                  /   \      - P O W E R E D   B Y -                         
                 /     \                                                     
                 |  |  |   _    _      __       _____    __    __             
                 |  |  |  | |  | |    /  \     |  _  \  |  |  /  |          
                  \  \/   | |  | |   /    \    | | | |  |  | /  /          
                 / \  \   | |__| |  /  /\  \   | |_| |  |  |/  /          
                |  |  |   |  __  | /  /__\  \  |    /   |      \           
                |  |  |   | |  | | |   __   |  |    \   |  |\   \          
                \     /   | |  | | |  |  |  |  | |\  \  |  | \   \       
                 \___/    |_|  |_| |__|  |__|  |_| \__\ |__|  \__/        
                                                                              
                      - O R C A' S   B I G   F R I E N D -                    
                                      &                                       
                       - I N T E G R A L  F E E D E R -                       
                                                                              
 v1 FN, 2020, v2 2021                                                         
------------------------------------------------------------------------------


Reading SHARK input file HBQ-DCP_ES.SHARKINP.tmp ... ok
----------------------
SHARK INTEGRAL PACKAGE
----------------------

Number of atoms                             ...     52
Number of basis functions                   ...    822
Number of shells                            ...    378
Maximum angular momentum                    ...      2
Integral batch strategy                     ... SHARK/LIBINT Hybrid
RI-J (if used) integral strategy            ... SPLIT-RIJ (Revised 2003 algorithm where possible)
Printlevel                                  ...      1
Contraction scheme used                     ... SEGMENTED contraction
Coulomb Range Separation                    ... NOT USED
Exchange Range Separation                   ... NOT USED
Finite Nucleus Model                        ... NOT USED
Auxiliary Coulomb fitting basis             ... AVAILABLE
   # of basis functions in Aux-J            ...   1638
   # of shells in Aux-J                     ...    542
   Maximum angular momentum in Aux-J        ...      4
Auxiliary J/K fitting basis                 ... NOT available
Auxiliary Correlation fitting basis         ... AVAILABLE
   # of basis functions in Aux-C            ...   2525
   # of shells in Aux-C                     ...    791
   Maximum angular momentum in Aux-C        ...      4
Auxiliary 'external' fitting basis          ... NOT available
Integral threshold                          ...     2.500000e-11
Primitive cut-off                           ...     2.500000e-12
Primitive pair pre-selection threshold      ...     2.500000e-12

Calculating pre-screening integrals         ... done (  0.3 sec) Dimension = 378
Organizing shell pair data                  ... done (  0.7 sec)
Shell pair information
Total number of shell pairs                 ...     71631
Shell pairs after pre-screening             ...     49654
Total number of primitive shell pairs       ...    234288
Primitive shell pairs kept                  ...    102742
          la=0 lb=0:  14860 shell pairs
          la=1 lb=0:  16566 shell pairs
          la=1 lb=1:   4646 shell pairs
          la=2 lb=0:   7924 shell pairs
          la=2 lb=1:   4510 shell pairs
          la=2 lb=2:   1148 shell pairs

Calculating one electron integrals          ... done (  0.3 sec)
Calculating RI/J V-Matrix + Cholesky decomp.... done (  0.5 sec)
Calculating RI/C V-Matrix + Cholesky decomp.... done (  1.2 sec)
Calculating Nuclear repulsion               ... done (  0.0 sec) ENN=   3122.750360143646 Eh

SHARK setup successfully completed in   4.1 seconds

Maximum memory used throughout the entire GTOINT-calculation: 348.2 MB
-------------------------------------------------------------------------------
                                 ORCA SCF
-------------------------------------------------------------------------------

------------
SCF SETTINGS
------------
Hamiltonian:
 Density Functional     Method          .... DFT(GTOs)
 Exchange Functional    Exchange        .... B88
   X-Alpha parameter    XAlpha          ....  0.666667
   Becke's b parameter  XBeta           ....  0.004200
 Correlation Functional Correlation     .... LYP
 LDA part of GGA corr.  LDAOpt          .... VWN-3
 Gradients option       PostSCFGGA      .... off
 Hybrid DFT is turned on
   Fraction HF Exchange ScalHFX         ....  0.200000
   Scaling of DF-GGA-X  ScalDFX         ....  0.720000
   Scaling of DF-GGA-C  ScalDFC         ....  0.810000
   Scaling of DF-LDA-C  ScalLDAC        ....  1.000000
   Perturbative correction              ....  0.000000
   Density functional embedding theory  .... OFF
   NL short-range parameter             ....  4.800000
 RI-approximation to the Coulomb term is turned on
   Number of AuxJ basis functions       .... 1638
   RIJ-COSX (HFX calculated with COS-X)).... on


General Settings:
 Integral files         IntName         .... HBQ-DCP_ES
 Hartree-Fock type      HFTyp           .... RHF
 Total Charge           Charge          ....    1
 Multiplicity           Mult            ....    1
 Number of Electrons    NEL             ....  212
 Basis Dimension        Dim             ....  822
 Nuclear Repulsion      ENuc            ....   3122.7503601436 Eh

Convergence Acceleration:
 DIIS                   CNVDIIS         .... on
   Start iteration      DIISMaxIt       ....    12
   Startup error        DIISStart       ....  0.200000
   # of expansion vecs  DIISMaxEq       ....     5
   Bias factor          DIISBfac        ....   1.050
   Max. coefficient     DIISMaxC        ....  10.000
 Trust-Rad. Augm. Hess. CNVTRAH         .... auto
   Auto Start mean grad. ratio tolernc. ....  1.125000
   Auto Start start iteration           ....    20
   Auto Start num. interpolation iter.  ....    10
   Max. Number of Micro iterations      ....    16
   Max. Number of Macro iterations      .... Maxiter - #DIIS iter
   Number of Davidson start vectors     ....     2
   Converg. threshold I  (grad. norm)   ....   1.000e-05
   Converg. threshold II (energy diff.) ....   1.000e-08
   Grad. Scal. Fac. for Micro threshold ....   0.100
   Minimum threshold for Micro iter.    ....   0.010
   NR start threshold (gradient norm)   ....   0.001
   Initial trust radius                 ....   0.400
   Minimum AH scaling param. (alpha)    ....   1.000
   Maximum AH scaling param. (alpha)    .... 1000.000
   Orbital update algorithm             .... Taylor
   White noise on init. David. guess    .... on
   Maximum white noise                  ....   0.010
   Quad. conv. algorithm                .... NR
 SOSCF                  CNVSOSCF        .... on
   Start iteration      SOSCFMaxIt      ....   150
   Startup grad/error   SOSCFStart      ....  0.003300
 Level Shifting         CNVShift        .... on
   Level shift para.    LevelShift      ....    0.2500
   Turn off err/grad.   ShiftErr        ....    0.0010
 Zerner damping         CNVZerner       .... off
 Static damping         CNVDamp         .... on
   Fraction old density DampFac         ....    0.7000
   Max. Damping (<1)    DampMax         ....    0.9800
   Min. Damping (>=0)   DampMin         ....    0.0000
   Turn off err/grad.   DampErr         ....    0.1000
 Fernandez-Rico         CNVRico         .... off

SCF Procedure:
 Maximum # iterations   MaxIter         ....   125
 SCF integral mode      SCFMode         .... Direct
   Integral package                     .... SHARK and LIBINT hybrid scheme
 Reset frequency        DirectResetFreq ....    20
 Integral Threshold     Thresh          ....  2.500e-11 Eh
 Primitive CutOff       TCut            ....  2.500e-12 Eh

Convergence Tolerance:
 Convergence Check Mode ConvCheckMode   .... Total+1el-Energy
 Convergence forced     ConvForced      .... 1
 Energy Change          TolE            ....  1.000e-08 Eh
 1-El. energy change                    ....  1.000e-05 Eh
 Orbital Gradient       TolG            ....  1.000e-05
 Orbital Rotation angle TolX            ....  1.000e-05
 DIIS Error             TolErr          ....  5.000e-07


Diagonalization of the overlap matrix:
Smallest eigenvalue                        ... 4.685e-06
Time for diagonalization                   ...    0.072 sec
Threshold for overlap eigenvalues          ... 1.000e-08
Number of eigenvalues below threshold      ... 0
Time for construction of square roots      ...    0.090 sec
Total time needed                          ...    0.162 sec

Time for model grid setup =    1.291 sec

------------------------------
INITIAL GUESS: MODEL POTENTIAL
------------------------------
Loading Hartree-Fock densities                     ... done
Calculating cut-offs                               ... done
Initializing the effective Hamiltonian             ... done
Setting up the integral package (SHARK)            ... done
Starting the Coulomb interaction                   ... done (   2.6 sec)
Reading the grid                                   ... done
Mapping shells                                     ... done
Starting the XC term evaluation                    ... done (   1.6 sec)
  promolecular density results
     # of electrons  =    212.995397983
     EX              =   -186.943102135
     EC              =     -7.402646185
     EX+EC           =   -194.345748320
Transforming the Hamiltonian                       ... done (   0.0 sec)
Diagonalizing the Hamiltonian                      ... done (   0.1 sec)
Back transforming the eigenvectors                 ... done (   0.0 sec)
Now organizing SCF variables                       ... done
                      ------------------
                      INITIAL GUESS DONE (   5.6 sec)
                      ------------------
-------------------
DFT GRID GENERATION
-------------------

General Integration Accuracy     IntAcc      ... 4.388
Radial Grid Type                 RadialGrid  ... OptM3 with GC (2021)
Angular Grid (max. ang.)         AngularGrid ... 4 (Lebedev-302)
Angular grid pruning method      GridPruning ... 4 (adaptive)
Weight generation scheme         WeightScheme... Becke
Basis function cutoff            BFCut       ... 1.0000e-11
Integration weight cutoff        WCut        ... 1.0000e-14
Angular grids for H and He will be reduced by one unit
Partially contracted basis set               ... off
Rotationally invariant grid construction     ... off

Total number of grid points                  ...   244447
Total number of batches                      ...     3849
Average number of points per batch           ...       63
Average number of grid points per atom       ...     4701
Time for grid setup =    4.239 sec

--------------------
COSX GRID GENERATION
--------------------

GRIDX 1
-------
General Integration Accuracy     IntAcc      ... 3.816
Radial Grid Type                 RadialGrid  ... OptM3 with GC (2021)
Angular Grid (max. ang.)         AngularGrid ... 1 (Lebedev-50)
Angular grid pruning method      GridPruning ... 4 (adaptive)
Weight generation scheme         WeightScheme... Becke
Basis function cutoff            BFCut       ... 1.0000e-11
Integration weight cutoff        WCut        ... 1.0000e-14
Angular grids for H and He will be reduced by one unit
Partially contracted basis set               ... on
Rotationally invariant grid construction     ... off

Total number of grid points                  ...    31003
Total number of batches                      ...      509
Average number of points per batch           ...       60
Average number of grid points per atom       ...      596
UseSFitting                                  ... on

GRIDX 2
-------
General Integration Accuracy     IntAcc      ... 4.020
Radial Grid Type                 RadialGrid  ... OptM3 with GC (2021)
Angular Grid (max. ang.)         AngularGrid ... 2 (Lebedev-110)
Angular grid pruning method      GridPruning ... 4 (adaptive)
Weight generation scheme         WeightScheme... Becke
Basis function cutoff            BFCut       ... 1.0000e-11
Integration weight cutoff        WCut        ... 1.0000e-14
Angular grids for H and He will be reduced by one unit
Partially contracted basis set               ... on
Rotationally invariant grid construction     ... off

Total number of grid points                  ...    66484
Total number of batches                      ...     1069
Average number of points per batch           ...       62
Average number of grid points per atom       ...     1279
UseSFitting                                  ... on

GRIDX 3
-------
General Integration Accuracy     IntAcc      ... 4.338
Radial Grid Type                 RadialGrid  ... OptM3 with GC (2021)
Angular Grid (max. ang.)         AngularGrid ... 3 (Lebedev-194)
Angular grid pruning method      GridPruning ... 4 (adaptive)
Weight generation scheme         WeightScheme... Becke
Basis function cutoff            BFCut       ... 1.0000e-11
Integration weight cutoff        WCut        ... 1.0000e-14
Angular grids for H and He will be reduced by one unit
Partially contracted basis set               ... on
Rotationally invariant grid construction     ... off

Total number of grid points                  ...   145299
Total number of batches                      ...     2299
Average number of points per batch           ...       63
Average number of grid points per atom       ...     2794
UseSFitting                                  ... on

Time for X-Grid setup             =    7.165 sec


--------------------
CPCM SOLVATION MODEL
--------------------
CPCM parameters:
  Epsilon                                         ...      80.4000
  Refrac                                          ...       1.3300
  Rsolv                                           ...       1.3000
  Surface type                                    ... GAUSSIAN VDW
  Epsilon function type                           ...         CPCM
Radii:
 Radius for C  used is    3.8550 Bohr (=   2.0400 Ang.)
 Radius for O  used is    3.4469 Bohr (=   1.8240 Ang.)
 Radius for N  used is    3.5149 Bohr (=   1.8600 Ang.)
 Radius for H  used is    2.4944 Bohr (=   1.3200 Ang.)
 Radius for P  used is    4.0818 Bohr (=   2.1600 Ang.)
Calculating surface                               ...        done! (  0.0s)
GEPOL surface points                              ...         2748
GEPOL Volume                                      ...    3092.8464
GEPOL Surface-area                                ...    1529.3943
Calculating surface distance matrix               ...        done! (  0.0s)
Performing Cholesky decomposition & store         ...        done! (  0.7s)
Overall time for CPCM initialization              ...                 0.7s
--------------
SCF ITERATIONS
--------------
ITER       Energy         Delta-E        Max-DP      RMS-DP      [F,P]     Damp
               ***  Starting incremental Fock matrix formation  ***
  0  -1603.1728366147   0.000000000000 0.14089615  0.00104733  0.3736384 0.7000
  1  -1603.5619318309  -0.389095216193 0.06271739  0.00076417  0.1291154 0.7000
                               ***Turning on DIIS***
  2  -1603.7026136947  -0.140681863779 0.12140668  0.00134525  0.0393592 0.0000
  3  -1603.9435849881  -0.240971293338 0.05178177  0.00051559  0.0614583 0.0000
  4  -1603.9881784936  -0.044593505551 0.01883755  0.00020939  0.0240245 0.0000
  5  -1603.9915660595  -0.003387565877 0.00591457  0.00006131  0.0094004 0.0000
                      *** Initiating the SOSCF procedure ***
                           *** Shutting down DIIS ***
                      *** Re-Reading the Fockian *** 
                      *** Removing any level shift *** 
ITER      Energy       Delta-E        Grad      Rot      Max-DP    RMS-DP
  6  -1603.99179106  -0.0002250002  0.000320  0.000320  0.003782  0.000027
               *** Restarting incremental Fock matrix formation ***
  7  -1603.99174865   0.0000424099  0.000129  0.000667  0.001760  0.000023
  8  -1603.99174774   0.0000009109  0.000187  0.000587  0.000544  0.000008
  9  -1603.99175259  -0.0000048508  0.000047  0.000261  0.000418  0.000005
 10  -1603.99175244   0.0000001497  0.000047  0.000137  0.000210  0.000002
 11  -1603.99175281  -0.0000003700  0.000008  0.000035  0.000176  0.000002
 12  -1603.99175281   0.0000000042  0.000010  0.000019  0.000239  0.000001
                  ***Gradient check signals convergence***
              ***Rediagonalizing the Fockian in SOSCF/NRSCF***

               *****************************************************
               *                     SUCCESS                       *
               *           SCF CONVERGED AFTER  13 CYCLES          *
               *****************************************************

Old exchange energy                            =    -37.860273810 Eh
New exchange energy                            =    -37.860261226 Eh
Exchange energy change after final integration =      0.000012585 Eh
Total energy after final integration           =  -1603.991740227 Eh
Final COS-X integration done in                =   163.513 sec

----------------
TOTAL SCF ENERGY
----------------

Total Energy       :        -1603.99174023 Eh          -43646.83421 eV

Components:
Nuclear Repulsion  :         3122.75036014 Eh           84974.35731 eV
Electronic Energy  :        -4726.74210037 Eh         -128621.19153 eV
One Electron Energy:        -8379.48817803 Eh         -228017.46551 eV
Two Electron Energy:         3652.74607766 Eh           99396.27398 eV
Max COSX asymmetry :            0.00000269 Eh               0.00007 eV
CPCM Dielectric    :           -0.08503672 Eh              -2.31397 eV

Virial components:
Potential Energy   :        -3200.94827759 Eh          -87102.23083 eV
Kinetic Energy     :         1596.95653737 Eh           43455.39661 eV
Virial Ratio       :            2.00440538


DFT components:
N(Alpha)           :      105.999822517526 electrons
N(Beta)            :      105.999822517526 electrons
N(Total)           :      211.999645035052 electrons
E(X)               :     -150.486938591020 Eh       
E(C)               :       -9.461011935691 Eh       
E(XC)              :     -159.947950526711 Eh       
DFET-embed. en.    :        0.000000000000 Eh       
CPCM Solvation Model Properties:
Surface-charge          :           -1.03420903
Charge-correction       :            0.00305758 Eh               0.08320 eV
Free-energy (cav+disp)  :  This term is not implemented in the current solvation scheme

---------------
SCF CONVERGENCE
---------------

  Last Energy change         ...   -6.0413e-09  Tolerance :   1.0000e-08
  Last MAX-Density change    ...    1.5543e-15  Tolerance :   1.0000e-07
  Last RMS-Density change    ...    1.5139e-17  Tolerance :   5.0000e-09
  Last Orbital Gradient      ...    1.9913e-06  Tolerance :   1.0000e-05
  Last Orbital Rotation      ...    6.3886e-06  Tolerance :   1.0000e-05

             **** THE GBW FILE WAS UPDATED (HBQ-DCP_ES.gbw) ****
             **** DENSITY HBQ-DCP_ES.scfp WAS UPDATED ****
             **** ENERGY FILE WAS UPDATED (HBQ-DCP_ES.en.tmp) ****
             **** THE GBW FILE WAS UPDATED (HBQ-DCP_ES.gbw) ****
             **** DENSITY HBQ-DCP_ES.scfp WAS UPDATED ****
----------------
ORBITAL ENERGIES
----------------

  NO   OCC          E(Eh)            E(eV) 
   0   2.0000     -77.218944     -2101.2343 
   1   2.0000     -19.188930      -522.1573 
   2   2.0000     -19.184482      -522.0363 
   3   2.0000     -19.182750      -521.9892 
   4   2.0000     -19.118517      -520.2413 
   5   2.0000     -19.117721      -520.2196 
   6   2.0000     -14.426896      -392.5758 
   7   2.0000     -14.365316      -390.9001 
   8   2.0000     -10.335733      -281.2496 
   9   2.0000     -10.282238      -279.7939 
  10   2.0000     -10.277586      -279.6673 
  11   2.0000     -10.268262      -279.4136 
  12   2.0000     -10.248666      -278.8804 
  13   2.0000     -10.243964      -278.7524 
  14   2.0000     -10.242502      -278.7127 
  15   2.0000     -10.233838      -278.4769 
  16   2.0000     -10.224409      -278.2203 
  17   2.0000     -10.222363      -278.1646 
  18   2.0000     -10.218429      -278.0576 
  19   2.0000     -10.204825      -277.6874 
  20   2.0000     -10.203612      -277.6544 
  21   2.0000     -10.203257      -277.6447 
  22   2.0000     -10.202078      -277.6127 
  23   2.0000     -10.198386      -277.5122 
  24   2.0000     -10.194779      -277.4140 
  25   2.0000     -10.194685      -277.4115 
  26   2.0000     -10.169437      -276.7244 
  27   2.0000     -10.169093      -276.7151 
  28   2.0000      -6.686096      -181.9379 
  29   2.0000      -4.848974      -131.9473 
  30   2.0000      -4.847958      -131.9196 
  31   2.0000      -4.846961      -131.8925 
  32   2.0000      -1.131245       -30.7827 
  33   2.0000      -1.114559       -30.3287 
  34   2.0000      -1.059439       -28.8288 
  35   2.0000      -1.046058       -28.4647 
  36   2.0000      -1.020027       -27.7563 
  37   2.0000      -0.996797       -27.1242 
  38   2.0000      -0.960069       -26.1248 
  39   2.0000      -0.908572       -24.7235 
  40   2.0000      -0.872694       -23.7472 
  41   2.0000      -0.844669       -22.9846 
  42   2.0000      -0.810331       -22.0502 
  43   2.0000      -0.792967       -21.5777 
  44   2.0000      -0.782437       -21.2912 
  45   2.0000      -0.770929       -20.9781 
  46   2.0000      -0.763380       -20.7726 
  47   2.0000      -0.729296       -19.8451 
  48   2.0000      -0.722008       -19.6468 
  49   2.0000      -0.706563       -19.2266 
  50   2.0000      -0.683135       -18.5891 
  51   2.0000      -0.671679       -18.2773 
  52   2.0000      -0.659468       -17.9450 
  53   2.0000      -0.643827       -17.5194 
  54   2.0000      -0.632312       -17.2061 
  55   2.0000      -0.617400       -16.8003 
  56   2.0000      -0.598267       -16.2797 
  57   2.0000      -0.576089       -15.6762 
  58   2.0000      -0.562784       -15.3141 
  59   2.0000      -0.550641       -14.9837 
  60   2.0000      -0.549471       -14.9519 
  61   2.0000      -0.544326       -14.8119 
  62   2.0000      -0.540507       -14.7079 
  63   2.0000      -0.514540       -14.0013 
  64   2.0000      -0.513249       -13.9662 
  65   2.0000      -0.508063       -13.8251 
  66   2.0000      -0.500103       -13.6085 
  67   2.0000      -0.494538       -13.4571 
  68   2.0000      -0.493335       -13.4243 
  69   2.0000      -0.487742       -13.2721 
  70   2.0000      -0.472962       -12.8700 
  71   2.0000      -0.470170       -12.7940 
  72   2.0000      -0.461864       -12.5680 
  73   2.0000      -0.456915       -12.4333 
  74   2.0000      -0.454467       -12.3667 
  75   2.0000      -0.449998       -12.2451 
  76   2.0000      -0.440813       -11.9951 
  77   2.0000      -0.438612       -11.9352 
  78   2.0000      -0.432377       -11.7656 
  79   2.0000      -0.423061       -11.5121 
  80   2.0000      -0.417886       -11.3713 
  81   2.0000      -0.413894       -11.2626 
  82   2.0000      -0.407938       -11.1005 
  83   2.0000      -0.406049       -11.0491 
  84   2.0000      -0.400815       -10.9067 
  85   2.0000      -0.399316       -10.8659 
  86   2.0000      -0.398125       -10.8335 
  87   2.0000      -0.392944       -10.6925 
  88   2.0000      -0.390966       -10.6387 
  89   2.0000      -0.388385       -10.5685 
  90   2.0000      -0.384780       -10.4704 
  91   2.0000      -0.378239       -10.2924 
  92   2.0000      -0.373505       -10.1636 
  93   2.0000      -0.367171        -9.9912 
  94   2.0000      -0.357648        -9.7321 
  95   2.0000      -0.350277        -9.5315 
  96   2.0000      -0.344321        -9.3695 
  97   2.0000      -0.338690        -9.2162 
  98   2.0000      -0.334104        -9.0914 
  99   2.0000      -0.329280        -8.9602 
 100   2.0000      -0.324481        -8.8296 
 101   2.0000      -0.306044        -8.3279 
 102   2.0000      -0.299712        -8.1556 
 103   2.0000      -0.275919        -7.5081 
[...]
 62:    804.43   0.003197   16.16  0.001240  (-0.007804 -0.028648 -0.018939)
 63:    819.91   0.000998    5.04  0.000380  (-0.010179  0.013926  0.009072)
 64:    824.10   0.001055    5.33  0.000399  (-0.000458  0.001770 -0.019904)
 65:    827.22   0.002041   10.32  0.000770  (-0.027193  0.000607 -0.005500)
 66:    847.81   0.003826   19.33  0.001408  ( 0.027659 -0.012295  0.022182)
 67:    860.01   0.024399  123.30  0.008853  ( 0.059507  0.007182  0.072531)
 68:    908.02   0.020984  106.04  0.007212  ( 0.000041 -0.055846 -0.063975)
 69:    941.83   0.001453    7.34  0.000481  ( 0.001810  0.012677 -0.017815)
 70:    955.11   0.012021   60.75  0.003928  ( 0.035335 -0.003295  0.051654)
 71:    958.39   0.068691  347.14  0.022367  ( 0.102271 -0.049182  0.097409)
 72:    967.99   0.047640  240.76  0.015359  (-0.112041 -0.012365 -0.051501)
 73:    981.31   0.039237  198.29  0.012478  (-0.100575  0.040219 -0.027290)
 74:    981.94   0.147721  746.52  0.046947  (-0.191848  0.100425 -0.007464)
 75:    989.42   0.000556    2.81  0.000175  (-0.008219  0.007372  0.007313)
 76:    996.95   0.006973   35.24  0.002183  ( 0.021822 -0.040295 -0.009093)
 77:    999.77   0.050600  255.71  0.015794  (-0.111538  0.053014 -0.023298)
 78:   1040.62   0.062004  313.34  0.018594  (-0.098523  0.092511  0.018141)
 79:   1051.48   0.025508  128.91  0.007570  ( 0.005920 -0.042258 -0.075826)
 80:   1069.80   0.016192   81.83  0.004723  ( 0.034854 -0.029755  0.051216)
 81:   1086.42   0.020915  105.70  0.006008  ( 0.059063 -0.034128  0.036803)
 82:   1094.47   0.157278  794.82  0.044844  ( 0.164362 -0.112045  0.072630)
 83:   1113.87   0.003728   18.84  0.001045  (-0.025495  0.012607  0.015349)
 84:   1117.27   0.000249    1.26  0.000070  (-0.007199 -0.003871  0.001681)
 85:   1118.20   0.001536    7.76  0.000429  (-0.004876  0.019562 -0.004729)
 86:   1118.95   0.002776   14.03  0.000774  ( 0.013568  0.015454  0.018746)
 87:   1123.94   0.009689   48.97  0.002690  (-0.016609 -0.037305  0.031980)
 88:   1157.93   0.004725   23.88  0.001273  ( 0.008745  0.033704  0.007808)
 89:   1166.23   0.003167   16.01  0.000847  ( 0.018486 -0.022097 -0.004182)
 90:   1172.67   0.001354    6.84  0.000360  (-0.014363  0.002177  0.012221)
 91:   1179.73   0.002007   10.14  0.000531  (-0.012715  0.014333 -0.012799)
 92:   1188.78   0.002732   13.81  0.000717  (-0.006251 -0.003248 -0.025836)
 93:   1192.61   0.007876   39.80  0.002061  ( 0.001639  0.010617 -0.044108)
 94:   1204.37   0.010716   54.15  0.002777  (-0.050492 -0.012460  0.008472)
 95:   1241.10   0.017762   89.76  0.004466  (-0.043766  0.049154 -0.011599)
 96:   1243.96   0.012522   63.28  0.003141  (-0.012578  0.030976 -0.044984)
 97:   1264.82   0.003780   19.10  0.000933  ( 0.003905  0.021839 -0.020985)
 98:   1273.36   0.042852  216.55  0.010502  (-0.016048 -0.091473  0.043322)
 99:   1280.41   0.029179  147.46  0.007112  (-0.058593 -0.035125  0.049444)
100:   1311.73   0.000413    2.09  0.000098  ( 0.001136  0.009519 -0.002509)
101:   1313.76   0.000452    2.28  0.000107  ( 0.005016 -0.006798  0.005991)
102:   1337.81   0.007159   36.18  0.001670  ( 0.039074  0.009676  0.007030)
103:   1365.55   0.088454  447.01  0.020214  (-0.048555 -0.128043  0.038228)
104:   1378.36   0.008323   42.06  0.001884  ( 0.042892  0.002126 -0.006342)
105:   1390.62   0.032042  161.93  0.007190  (-0.063211  0.049602 -0.027099)
106:   1401.01   0.000001    0.00  0.000000  ( 0.000167 -0.000113  0.000282)
107:   1402.89   0.000182    0.92  0.000040  (-0.003086 -0.003851  0.004018)
108:   1411.44   0.040961  207.00  0.009056  (-0.004606  0.094526 -0.009996)
109:   1416.49   0.003576   18.07  0.000788  (-0.027430  0.004452  0.003952)
110:   1418.22   0.002839   14.35  0.000625  ( 0.015908  0.002990  0.019042)
111:   1440.00   0.011792   59.59  0.002555  ( 0.012844 -0.047240  0.012602)
112:   1441.78   0.004516   22.82  0.000978  ( 0.022334 -0.021477 -0.004180)
113:   1453.31   0.001376    6.95  0.000295  ( 0.011262  0.009684  0.008646)
114:   1460.29   0.010425   52.68  0.002228  (-0.043701  0.002143  0.017706)
115:   1469.29   0.002320   11.72  0.000493  (-0.002212 -0.007030  0.020939)
116:   1470.20   0.002514   12.71  0.000534  (-0.009102  0.002808  0.021047)
117:   1471.26   0.000515    2.60  0.000109  (-0.003899 -0.009308 -0.002724)
118:   1479.53   0.005451   27.55  0.001150  (-0.007713 -0.032992  0.001321)
119:   1483.16   0.000636    3.21  0.000134  ( 0.007901 -0.007339  0.004176)
120:   1483.60   0.000667    3.37  0.000140  ( 0.010770  0.003112 -0.003827)
121:   1488.94   0.004281   21.63  0.000897  (-0.003931  0.017206  0.024200)
122:   1492.60   0.002256   11.40  0.000472  ( 0.008240  0.014809  0.013581)
123:   1511.54   0.001753    8.86  0.000362  ( 0.008977 -0.016642  0.002086)
124:   1512.58   0.011937   60.33  0.002463  ( 0.042382  0.007861  0.024591)
125:   1516.27   0.004592   23.20  0.000945  ( 0.022602 -0.020106  0.005470)
126:   1531.71   0.016369   82.72  0.003335  ( 0.042230  0.031253 -0.023975)
127:   1547.88   0.001756    8.88  0.000354  ( 0.002304  0.017576  0.006313)
128:   1568.82   0.023485  118.68  0.004672  ( 0.051494 -0.004235 -0.044743)
129:   1586.15   0.025270  127.70  0.004972  ( 0.012717 -0.067171 -0.017265)
130:   1601.91   0.008652   43.72  0.001685  ( 0.005572  0.040340 -0.005200)
131:   1728.12   0.176769  893.32  0.031921  ( 0.130466 -0.066726 -0.102211)
132:   3034.25   0.007712   38.97  0.000793  (-0.011819  0.001519 -0.025518)
133:   3039.72   0.016486   83.31  0.001693  ( 0.040714 -0.005016 -0.003116)
134:   3040.91   0.002678   13.53  0.000275  ( 0.012414  0.009996  0.004562)
135:   3042.01   0.002973   15.03  0.000305  ( 0.003732 -0.016354 -0.004863)
136:   3069.38   0.003641   18.40  0.000370  ( 0.006424 -0.018062  0.001642)
137:   3074.36   0.004073   20.58  0.000413  ( 0.015635  0.010229  0.008022)
138:   3096.92   0.006284   31.75  0.000633  ( 0.003457  0.024144  0.006188)
139:   3103.50   0.000739    3.73  0.000074  (-0.004008 -0.000966  0.007571)
140:   3105.23   0.004825   24.39  0.000485  ( 0.001019  0.021985  0.000747)
141:   3105.93   0.001635    8.26  0.000164  ( 0.005186  0.006787 -0.009555)
142:   3107.00   0.004815   24.33  0.000484  ( 0.007422 -0.020417  0.003419)
143:   3108.79   0.004631   23.40  0.000465  ( 0.018613  0.007584  0.007803)
144:   3129.36   0.007537   38.09  0.000752  (-0.009935  0.002990  0.025377)
145:   3134.80   0.005915   29.89  0.000589  ( 0.002166  0.006461 -0.023288)
146:   3170.08   0.001142    5.77  0.000112  ( 0.008003 -0.000084 -0.006954)
147:   3196.36   0.000095    0.48  0.000009  (-0.000924 -0.002889  0.000324)
148:   3198.30   0.000668    3.38  0.000065  ( 0.002347 -0.001775  0.007519)
149:   3201.96   0.000062    0.31  0.000006  (-0.001277  0.001762  0.001138)
150:   3203.76   0.000168    0.85  0.000016  (-0.001937  0.000357  0.003529)
151:   3209.95   0.000517    2.61  0.000050  (-0.001367  0.006472 -0.002557)
152:   3211.06   0.000700    3.54  0.000068  ( 0.005373 -0.006236 -0.000529)
153:   3222.30   0.001003    5.07  0.000097  ( 0.003302  0.007912 -0.004862)
154:   3224.13   0.001345    6.80  0.000130  (-0.008784  0.000506  0.007267)
155:   3238.81   0.004964   25.08  0.000478  (-0.003298  0.021503 -0.002238)

* The epsilon (eps) is given for a Dirac delta lineshape.
** The dipole moment derivative (T) already includes vibrational overlap.

The first frequency considered to be a vibration is 6
The total number of vibrations considered is 150


--------------------------
THERMOCHEMISTRY AT 298.15K
--------------------------

Temperature         ... 298.15 K
Pressure            ... 1.00 atm
Total Mass          ... 403.39 AMU

Throughout the following assumptions are being made:
  (1) The electronic state is orbitally nondegenerate
  (2) There are no thermally accessible electronically excited states
  (3) Hindered rotations indicated by low frequency modes are not
      treated as such but are treated as vibrations and this may
      cause some error
  (4) All equations used are the standard statistical mechanics
      equations for an ideal gas
  (5) All vibrations are strictly harmonic

freq.      20.82  E(vib)   ...       0.56 
freq.      25.24  E(vib)   ...       0.56 
freq.      28.09  E(vib)   ...       0.55 
freq.      41.35  E(vib)   ...       0.54 
freq.      46.66  E(vib)   ...       0.53 
freq.      55.46  E(vib)   ...       0.52 
freq.      56.24  E(vib)   ...       0.52 
freq.      70.44  E(vib)   ...       0.50 
freq.      72.59  E(vib)   ...       0.49 
freq.      79.82  E(vib)   ...       0.49 
freq.      92.22  E(vib)   ...       0.47 
freq.      99.07  E(vib)   ...       0.46 
freq.     109.01  E(vib)   ...       0.45 
freq.     114.90  E(vib)   ...       0.44 
freq.     133.18  E(vib)   ...       0.42 
freq.     148.98  E(vib)   ...       0.40 
freq.     161.25  E(vib)   ...       0.39 
freq.     180.17  E(vib)   ...       0.37 
freq.     186.70  E(vib)   ...       0.37 
freq.     208.07  E(vib)   ...       0.34 
freq.     225.34  E(vib)   ...       0.33 
freq.     231.18  E(vib)   ...       0.32 
freq.     252.90  E(vib)   ...       0.30 
freq.     255.31  E(vib)   ...       0.30 
freq.     261.74  E(vib)   ...       0.30 
freq.     290.08  E(vib)   ...       0.27 
freq.     312.06  E(vib)   ...       0.25 
freq.     321.68  E(vib)   ...       0.25 
freq.     336.59  E(vib)   ...       0.24 
freq.     348.22  E(vib)   ...       0.23 
freq.     370.64  E(vib)   ...       0.21 
freq.     376.22  E(vib)   ...       0.21 
freq.     406.85  E(vib)   ...       0.19 
freq.     423.23  E(vib)   ...       0.18 
freq.     441.20  E(vib)   ...       0.17 
freq.     454.42  E(vib)   ...       0.16 
freq.     464.81  E(vib)   ...       0.16 
freq.     485.78  E(vib)   ...       0.15 
freq.     501.81  E(vib)   ...       0.14 
freq.     505.47  E(vib)   ...       0.14 
freq.     529.64  E(vib)   ...       0.13 
freq.     541.99  E(vib)   ...       0.12 
freq.     555.22  E(vib)   ...       0.12 
freq.     571.16  E(vib)   ...       0.11 
freq.     597.05  E(vib)   ...       0.10 
freq.     621.78  E(vib)   ...       0.09 
freq.     637.81  E(vib)   ...       0.09 
freq.     678.59  E(vib)   ...       0.08 
freq.     707.20  E(vib)   ...       0.07 
freq.     721.56  E(vib)   ...       0.07 
freq.     737.87  E(vib)   ...       0.06 
freq.     741.12  E(vib)   ...       0.06 
freq.     763.99  E(vib)   ...       0.06 
freq.     777.96  E(vib)   ...       0.05 
freq.     780.04  E(vib)   ...       0.05 
freq.     797.85  E(vib)   ...       0.05 
freq.     804.43  E(vib)   ...       0.05 
freq.     819.91  E(vib)   ...       0.05 
freq.     824.10  E(vib)   ...       0.05 
freq.     827.22  E(vib)   ...       0.04 
freq.     847.81  E(vib)   ...       0.04 
freq.     860.01  E(vib)   ...       0.04 
freq.     908.02  E(vib)   ...       0.03 
freq.     941.83  E(vib)   ...       0.03 
freq.     955.11  E(vib)   ...       0.03 
freq.     958.39  E(vib)   ...       0.03 
freq.     967.99  E(vib)   ...       0.03 
freq.     981.31  E(vib)   ...       0.02 
freq.     981.94  E(vib)   ...       0.02 
freq.     989.42  E(vib)   ...       0.02 
freq.     996.95  E(vib)   ...       0.02 
freq.     999.77  E(vib)   ...       0.02 
freq.    1040.62  E(vib)   ...       0.02 
freq.    1051.48  E(vib)   ...       0.02 
freq.    1069.80  E(vib)   ...       0.02 
freq.    1086.42  E(vib)   ...       0.02 
freq.    1094.47  E(vib)   ...       0.02 
freq.    1113.87  E(vib)   ...       0.01 
freq.    1117.27  E(vib)   ...       0.01 
freq.    1118.20  E(vib)   ...       0.01 
freq.    1118.95  E(vib)   ...       0.01 
freq.    1123.94  E(vib)   ...       0.01 
freq.    1157.93  E(vib)   ...       0.01 
freq.    1166.23  E(vib)   ...       0.01 
freq.    1172.67  E(vib)   ...       0.01 
freq.    1179.73  E(vib)   ...       0.01 
freq.    1188.78  E(vib)   ...       0.01 
freq.    1192.61  E(vib)   ...       0.01 
freq.    1204.37  E(vib)   ...       0.01 
freq.    1241.10  E(vib)   ...       0.01 
freq.    1243.96  E(vib)   ...       0.01 
freq.    1264.82  E(vib)   ...       0.01 
freq.    1273.36  E(vib)   ...       0.01 
freq.    1280.41  E(vib)   ...       0.01 
freq.    1311.73  E(vib)   ...       0.01 
freq.    1313.76  E(vib)   ...       0.01 
freq.    1337.81  E(vib)   ...       0.01 
freq.    1365.55  E(vib)   ...       0.01 
freq.    1378.36  E(vib)   ...       0.01 
freq.    1390.62  E(vib)   ...       0.00 
freq.    1401.01  E(vib)   ...       0.00 
freq.    1402.89  E(vib)   ...       0.00 
freq.    1411.44  E(vib)   ...       0.00 
freq.    1416.49  E(vib)   ...       0.00 
freq.    1418.22  E(vib)   ...       0.00 
freq.    1440.00  E(vib)   ...       0.00 
freq.    1441.78  E(vib)   ...       0.00 
freq.    1453.31  E(vib)   ...       0.00 
freq.    1460.29  E(vib)   ...       0.00 
freq.    1469.29  E(vib)   ...       0.00 
freq.    1470.20  E(vib)   ...       0.00 
freq.    1471.26  E(vib)   ...       0.00 
freq.    1479.53  E(vib)   ...       0.00 
freq.    1483.16  E(vib)   ...       0.00 
freq.    1483.60  E(vib)   ...       0.00 
freq.    1488.94  E(vib)   ...       0.00 
freq.    1492.60  E(vib)   ...       0.00 
freq.    1511.54  E(vib)   ...       0.00 
freq.    1512.58  E(vib)   ...       0.00 
freq.    1516.27  E(vib)   ...       0.00 
freq.    1531.71  E(vib)   ...       0.00 
freq.    1547.88  E(vib)   ...       0.00 
freq.    1568.82  E(vib)   ...       0.00 
freq.    1586.15  E(vib)   ...       0.00 
freq.    1601.91  E(vib)   ...       0.00 
freq.    1728.12  E(vib)   ...       0.00 
freq.    3034.25  E(vib)   ...       0.00 
freq.    3039.72  E(vib)   ...       0.00 
freq.    3040.91  E(vib)   ...       0.00 
freq.    3042.01  E(vib)   ...       0.00 
freq.    3069.38  E(vib)   ...       0.00 
freq.    3074.36  E(vib)   ...       0.00 
freq.    3096.92  E(vib)   ...       0.00 
freq.    3103.50  E(vib)   ...       0.00 
freq.    3105.23  E(vib)   ...       0.00 
freq.    3105.93  E(vib)   ...       0.00 
freq.    3107.00  E(vib)   ...       0.00 
freq.    3108.79  E(vib)   ...       0.00 
freq.    3129.36  E(vib)   ...       0.00 
freq.    3134.80  E(vib)   ...       0.00 
freq.    3170.08  E(vib)   ...       0.00 
freq.    3196.36  E(vib)   ...       0.00 
freq.    3198.30  E(vib)   ...       0.00 
freq.    3201.96  E(vib)   ...       0.00 
freq.    3203.76  E(vib)   ...       0.00 
freq.    3209.95  E(vib)   ...       0.00 
freq.    3211.06  E(vib)   ...       0.00 
freq.    3222.30  E(vib)   ...       0.00 
freq.    3224.13  E(vib)   ...       0.00 
freq.    3238.81  E(vib)   ...       0.00 

------------
INNER ENERGY
------------

The inner energy is: U= E(el) + E(ZPE) + E(vib) + E(rot) + E(trans)
    E(el)   - is the total energy from the electronic structure calculation
              = E(kin-el) + E(nuc-el) + E(el-el) + E(nuc-nuc)
    E(ZPE)  - the the zero temperature vibrational energy from the frequency calculation
    E(vib)  - the the finite temperature correction to E(ZPE) due to population
              of excited vibrational states
    E(rot)  - is the rotational thermal energy
    E(trans)- is the translational thermal energy

Summary of contributions to the inner energy U:
Electronic energy                ...  -1603.91413317 Eh
Zero point energy                ...      0.41525884 Eh     260.58 kcal/mol
Thermal vibrational correction   ...      0.02566296 Eh      16.10 kcal/mol
Thermal rotational correction    ...      0.00141627 Eh       0.89 kcal/mol
Thermal translational correction ...      0.00141627 Eh       0.89 kcal/mol
-----------------------------------------------------------------------
Total thermal energy                  -1603.47037883 Eh


Summary of corrections to the electronic energy:
(perhaps to be used in another calculation)
Total thermal correction                  0.02849550 Eh      17.88 kcal/mol
Non-thermal (ZPE) correction              0.41525884 Eh     260.58 kcal/mol
-----------------------------------------------------------------------
Total correction                          0.44375434 Eh     278.46 kcal/mol


--------
ENTHALPY
--------

The enthalpy is H = U + kB*T
                kB is Boltzmann's constant
Total free energy                 ...  -1603.47037883 Eh 
Thermal Enthalpy correction       ...      0.00094421 Eh       0.59 kcal/mol
-----------------------------------------------------------------------
Total Enthalpy                    ...  -1603.46943462 Eh


Note: Only C1 symmetry has been detected, increase convergence thresholds 
      if your molecule has a higher symmetry. Symmetry factor of 1.0 is   
      used for the rotational entropy correction. 
 

Note: Rotational entropy computed according to Herzberg 
Infrared and Raman Spectra, Chapter V,1, Van Nostrand Reinhold, 1945 
Point Group:  C1, Symmetry Number:   1  
Rotational constants in cm-1:     0.006514     0.006271     0.004537 

Vibrational entropy computed according to the QRRHO of S. Grimme
Chem.Eur.J. 2012 18 9955


-------
ENTROPY
-------

The entropy contributions are T*S = T*(S(el)+S(vib)+S(rot)+S(trans))
     S(el)   - electronic entropy
     S(vib)  - vibrational entropy
     S(rot)  - rotational entropy
     S(trans)- translational entropy
The entropies will be listed as multiplied by the temperature to get
units of energy

Electronic entropy                ...      0.00000000 Eh      0.00 kcal/mol
Vibrational entropy               ...      0.04644118 Eh     29.14 kcal/mol
Rotational entropy                ...      0.01682875 Eh     10.56 kcal/mol
Translational entropy             ...      0.02084658 Eh     13.08 kcal/mol
-----------------------------------------------------------------------
Final entropy term                ...      0.08411652 Eh     52.78 kcal/mol

In case the symmetry of your molecule has not been determined correctly
or in case you have a reason to use a different symmetry number we print 
out the resulting rotational entropy values for sn=1,12 :
 --------------------------------------------------------
|  sn= 1 | S(rot)=       0.01682875 Eh     10.56 kcal/mol|
|  sn= 2 | S(rot)=       0.01617430 Eh     10.15 kcal/mol|
|  sn= 3 | S(rot)=       0.01579146 Eh      9.91 kcal/mol|
|  sn= 4 | S(rot)=       0.01551984 Eh      9.74 kcal/mol|
|  sn= 5 | S(rot)=       0.01530915 Eh      9.61 kcal/mol|
|  sn= 6 | S(rot)=       0.01513701 Eh      9.50 kcal/mol|
|  sn= 7 | S(rot)=       0.01499146 Eh      9.41 kcal/mol|
|  sn= 8 | S(rot)=       0.01486538 Eh      9.33 kcal/mol|
|  sn= 9 | S(rot)=       0.01475417 Eh      9.26 kcal/mol|
|  sn=10 | S(rot)=       0.01465470 Eh      9.20 kcal/mol|
|  sn=11 | S(rot)=       0.01456471 Eh      9.14 kcal/mol|
|  sn=12 | S(rot)=       0.01448255 Eh      9.09 kcal/mol|
 --------------------------------------------------------


-------------------
GIBBS FREE ENERGY
-------------------

The Gibbs free energy is G = H - T*S

Total enthalpy                    ...  -1603.46943462 Eh 
Total entropy correction          ...     -0.08411652 Eh    -52.78 kcal/mol
-----------------------------------------------------------------------
Final Gibbs free energy         ...  -1603.55355114 Eh

For completeness - the Gibbs free energy minus the electronic energy
G-E(el)                           ...      0.36058203 Eh    226.27 kcal/mol



Timings for individual modules:

Sum of individual times         ...   717890.559 sec (=11964.843 min)
GTO integral calculation        ...       55.620 sec (=   0.927 min)   0.0 %
SCF iterations                  ...     8925.911 sec (= 148.765 min)   1.2 %
CIS module                      ...     4937.957 sec (=  82.299 min)   0.7 %
SCF Gradient evaluation         ...    19354.543 sec (= 322.576 min)   2.7 %
Geometry relaxation             ...        1.209 sec (=   0.020 min)   0.0 %
Numerical frequency calculation ...   684615.320 sec (=11410.255 min)  95.4 %
                             ****ORCA TERMINATED NORMALLY****
TOTAL RUN TIME: 8 days 6 hours 49 minutes 21 seconds 634 msec
