
                                 *****************
                                 * O   R   C   A *
                                 *****************

                                            #,                                       
                                            ###                                      
                                            ####                                     
                                            #####                                    
                                            ######                                   
                                           ########,                                 
                                     ,,################,,,,,                         
                               ,,#################################,,                 
                          ,,##########################################,,             
                       ,#########################################, ''#####,          
                    ,#############################################,,   '####,        
                  ,##################################################,,,,####,       
                ,###########''''           ''''###############################       
              ,#####''   ,,,,##########,,,,          '''####'''          '####       
            ,##' ,,,,###########################,,,                        '##       
           ' ,,###''''                  '''############,,,                           
         ,,##''                                '''############,,,,        ,,,,,,###''
      ,#''                                            '''#######################'''  
     '                                                          ''''####''''         
             ,#######,   #######,   ,#######,      ##                                
            ,#'     '#,  ##    ##  ,#'     '#,    #''#        ,####,   ,####,        
            ##       ##  ##   ,#'  ##            #'  '#       #'       #'  '#        
            ##       ##  #######   ##           ,######,      #####,   #    #        
            '#,     ,#'  ##    ##  '#,     ,#' ,#      #,     #,   #   #,  ,#        
             '#######'   ##     ##  '#######'  #'      '#     '####' # '####'        



                #########################################################
                #                        -***-                          #
                #          Department of theory and spectroscopy        #
                #                                                       #
                #                      Frank Neese                      #
                #                                                       #
                #     Directorship, Architecture, Infrastructure        #
                #                    SHARK, DRIVERS                     #
                #        Core code/Algorithms in most modules           #
                #                                                       #
                #        Max Planck Institute fuer Kohlenforschung      #
                #                Kaiser Wilhelm Platz 1                 #
                #                 D-45470 Muelheim/Ruhr                 #
                #                      Germany                          #
                #                                                       #
                #                  All rights reserved                  #
                #                        -***-                          #
                #########################################################


                         Program Version 6.0.1  -  RELEASE   -


 With contributions from (in alphabetic order):
[Max-Planck-Institut fuer Kohlenforschung]                               
  Daniel Aravena         : Magnetic Suceptibility                        
  Michael Atanasov       : Ab Initio Ligand Field Theory (pilot matlab implementation)
  Alexander A. Auer      : GIAO ZORA, VPT2 properties, NMR spectrum      
  Ute Becker             : All parallelization in ORCA, NUMFREQ, NUMCALC 
  Giovanni Bistoni       : ED, misc. LED, open-shell LED, HFLD           
  Martin Brehm           : Molecular dynamics                            
  Dmytro Bykov           : pre 5.0 version of the SCF Hessian            
  Marcos Casanova-Páez   : Triplet and SCS-CIS(D). UHF-(DLPNO)-IP/EA/STEOM-CCSD. UHF-CVS-IP/STEOM-CCSD   
  Vijay G. Chilkuri      : MRCI spin determinant printing, contributions to CSF-ICE 
  Pauline Colinet        : FMM embedding                                 
  Dipayan Datta          : RHF DLPNO-CCSD density                        
  Achintya Kumar Dutta   : EOM-CC, STEOM-CC                              
  Nicolas Foglia         : Exact transition moments, OPA infrastructure, MCD improvements    
  Dmitry Ganyushin       : Spin-Orbit,Spin-Spin,Magnetic field MRCI      
  Miquel Garcia-Rates    : C-PCM and meta-GGA Hessian, CCSD/C-PCM, Gaussian charge scheme 
  Tiago L. C. Gouveia    : GS-ROHF, GS-ROCIS                             
  Yang Guo               : DLPNO-NEVPT2, F12-NEVPT2, CIM, IAO-localization        
  Andreas Hansen         : Spin unrestricted coupled pair/coupled cluster methods 
  Ingolf Harden          : AUTO-CI MPn and infrastructure                
  Benjamin Helmich-Paris : MC-RPA, TRAH-(SCF,CASSCF), AVAS, COSX integrals, SCF dyn. polar. 
  Lee Huntington         : MR-EOM, pCC                                   
  Robert Izsak           : Overlap fitted RIJCOSX, COSX-SCS-MP3, EOM     
  Riya Kayal             : Wick's Theorem for AUTO-CI, AUTO-CI UHF-CCSDT 
  Emily Kempfer          : AUTO-CI, RHF CISDT and CCSDT                  
  Christian Kollmar      : KDIIS, OOCD, Brueckner-CCSD(T), CCSD density, CASPT2, CASPT2-K, improved NEVPT2 
  Axel Koslowski         : Symmetry handling                             
  Simone Kossmann        : meta-GGA functionals, TD-DFT gradient, OOMP2, (MP2 Hessian; deprecated post 5.0) 
  Lucas Lang             : DCDCAS                                        
  Marvin Lechner         : AUTO-CI (C++ implementation), FIC-MRCC        
  Spencer Leger          : CASSCF response                               
  Dagmar Lenk            : GEPOL surface, SMD, ORCA-2-JSON               
  Dimitrios Liakos       : Extrapolation schemes; Compound Job, initial MDCI parallelization 
  Dimitrios Manganas     : Further ROCIS development; embedding schemes. LFT, Crystal Embedding 
  Dimitrios Pantazis     : SARC Basis sets                               
  Anastasios Papadopoulos: AUTO-CI, single reference methods and gradients 
  Taras Petrenko         : pre 6.0 DFT Hessian and TD-DFT gradient, (ASA, deprecated), ECA, 1-Electron XAS/XES, NRVS 
  Peter Pinski           : DLPNO-MP2, DLPNO-MP2 Gradient                 
  Christoph Reimann      : Effective Core Potentials                     
  Marius Retegan         : Local ZFS, SOC                                
  Christoph Riplinger    : Optimizer, TS searches, QM/MM, DLPNO-CCSD(T), (RO)-DLPNO pert. Triples 
  Michael Roemelt        : Original ROCIS implementation                 
  Masaaki Saitow         : Open-shell DLPNO-CCSD energy and density      
  Barbara Sandhoefer     : DKH picture change effects                    
  Kantharuban Sivalingam : CASSCF convergence/infrastructure, NEVPT2 and variants, FIC-MRCI 
  Bernardo de Souza      : ESD, SOC TD-DFT                               
  Georgi L. Stoychev     : AutoAux, RI-MP2 NMR, DLPNO-MP2 response, X2C  
  Van Anh Tran           : RI-MP2 g-tensors                              
  Willem Van den Heuvel  : Paramagnetic NMR                              
  Zikuan Wang            : NOTCH, Electric field optimization            
  Frank Wennmohs         : Technical directorship and infrastructure     
  Hang Xu                : AUTO-CI-Response properties                   
                                                                         
[FACCTs GmbH]                                                            
  Markus Bursch, Miquel Garcia-Rates, Christoph Riplinger, Bernardo de Souza, Georgi L. Stoychev 
                                                                 
  APM, Basis sets (HGBS, AHGBS, def-TZVP (Ac-Lr), def2-XVPD (La-Lu)), CI-OPT, improved COSX, DLPNO-Multilevel,           
  DOCKER, DRACO, updates on ESD, GOAT, IRC, LR-CPCM, MBIS, meta-GGA TD-DFT gradient, ML-optimized integration grids, 
  MM, NACMEs, nearIR, NEB, NEB-TS, NL-DFT gradient (VV10), 2- and 3-layer-ONIOM, interface openCOSMO-RS, QMMM,   
  Crystal-QMMM, SF, symmetry and pop. for TD-DFT, r2SCAN hybrids, SOLVATOR                                   
                                                                         
[Other institutions]                                                     
  V. Asgeirsson          : NEB                                           
  Christoph Bannwarth    : sTDA-DFT, sTD-DFT, PBEh-3c, B97-3c, D3        
  Sebastian Ehlert       : rSCAN, r2SCAN, r2SCAN-3c, D4, dhf basis sets  
  Marvin Friede          : D4 for Fr, Ra, Ac-Lr                          
  Lars Goerigk           : TD-DFT with DH, B97 family of functionals     
  Stefan Grimme          : VdW corrections, initial TS optimization, DFT functionals, gCP, sTDA/sTD-DF 
  Waldemar Hujo          : DFT-NL                                        
  H. Jonsson             : NEB                                           
  Holger Kruse           : gCP                                           
  Marcel Mueller         : wB97X-3c, vDZP basis set                      
  Hagen Neugebauer       : wr2SCAN                                       
  Tobias Risthaus        : range-separated hybrid DFT                    
  Lukas Wittmann         : regularized MP2, r2SCAN double-hybrids, wr2SCAN        
                                                                         
We gratefully acknowledge several colleagues who have allowed us to      
interface, adapt or use parts of their codes:                            
  Ed Valeev, F. Pavosevic, A. Kumar             : LibInt (2-el integral package), F12 methods 
  Garnet Chan, S. Sharma, J. Yang, R. Olivares  : DMRG                   
  Ulf Ekstrom                                   : XCFun DFT Library      
  Mihaly Kallay                                 : mrcc  (arbitrary order and MRCC methods)
  Frank Weinhold                                : gennbo (NPA and NBO analysis)           
  Simon Mueller                                 : openCOSMO-RS                            
  Christopher J. Cramer and Donald G. Truhlar   : smd solvation model                     
  S Lehtola, MJT Oliveira, MAL Marques          : LibXC Library                           
  Liviu Ungur et al                             : ANISO software                          


 Your calculation uses the libint2 library for the computation of 2-el integrals
 For citations please refer to: http://libint.valeyev.net

 Your ORCA version has been built with support for libXC version: 6.2.2
 For citations please refer to: https://libxc.gitlab.io

 This ORCA versions uses:
   CBLAS   interface :  Fast vector & matrix operations
   LAPACKE interface :  Fast linear algebra routines
   SCALAPACK package :  Parallel linear algebra routines
   Shared memory     :  Shared parallel matrices
   BLAS/LAPACK       :  OpenBLAS 0.3.27  USE64BITINT DYNAMIC_ARCH NO_AFFINITY Cooperlake SINGLE_THREADED
        Core in use  :  Cooperlake
   Copyright (c) 2011-2014, The OpenBLAS Project


================================================================================

----- Orbital basis set information -----
Your calculation utilizes the basis: def2-TZVP(-f)
   F. Weigend and R. Ahlrichs, Phys. Chem. Chem. Phys. 7, 3297 (2005).

----- AuxJ basis set information -----
Your calculation utilizes the auxiliary basis: def2/J
   F. Weigend, Phys. Chem. Chem. Phys. 8, 1057 (2006).

----- AuxC basis set information -----
Your calculation utilizes the auxiliary basis: def2-TZVP/C
  H-La, Hf-Rn : A. Hellweg, C. Hattig, S. Hofener and W. Klopper, Theor. Chem. Acc. 117, 587 (2007).
        Ce-Lu : J. Chmela and M. E. Harding, Mol. Phys. (2018).

================================================================================
                                        WARNINGS
                       Please study these warnings very carefully!
================================================================================

INFO   : Checking CIS options ...

WARNING: (CIS/TDDFT): Analytic excited state gradients requested
  ===> : turning on equilibrium dielectric conditions.

WARNING: Analytical Frequencies for this method not available!
  ===> : Switching to Numerical Frequencies!

WARNING: Geometry Optimization
  ===> : Switching off AutoStart
         For restart on a previous wavefunction, please use MOREAD

WARNING: CIS/ROCIS methods need fully converged wavefunctions
  ===> : Setting SCFConvForced true
         You can overwrite this default with %scf ConvForced false 


================================================================================
                                       INPUT FILE
================================================================================
NAME = hbq-es.inp
|  1> ! B3LYP/G VERYTIGHTOPT FREQ Def2-TZVP(-f) Def2-TZVP/C Def2/J RIJCOSX TightSCF CPCM(Water) AllPop SOSCF
|  2> 
|  3> %tddft
|  4>     NRoots 3
|  5>     IRoot 1
|  6> end 
|  7> 
|  8> * xyz 0 1 
|  9>   C          -3.31556253022893     -1.10750301527353     -0.25721246040825
| 10>   C          -2.76124871075397     -2.05539866418624     -1.12182282332210
| 11>   C          -1.42259013564319     -1.93593221100551     -1.47828552712168
| 12>   C          -2.53706165613196     -0.05880249233071      0.26082042661334
| 13>   C          -1.13116107484438      0.04412820239424      0.01078746760883
| 14>   O          -3.24343369143120      0.81289843577240      1.03343842785771
| 15>   C          -0.59584954853532     -0.90948874799449     -0.94336251561563
| 16>   C           0.75538550759268     -0.83462410764932     -1.30912656724823
| 17>   C           1.59425816999286      0.12918839465067     -0.74708960276067
| 18>   C          -0.24326071034836      0.95284754585047      0.67977417673203
| 19>   C           1.14000947137062      1.01341218538831      0.25381605844034
| 20>   N          -0.70692701622798      1.73127303959690      1.69732925263623
| 21>   C           0.14018885364750      2.63344427875872      2.24270609106856
| 22>   C           1.46478241373504      2.80837841647632      1.85305981671050
| 23>   C           1.99103566812257      1.97467368605570      0.85827118072156
| 24>   C          -3.22135778767975      2.18403332573394      0.75831202938009
| 25>   O          -2.85981410796624      2.60857875944338     -0.31885899085051
| 26>   N          -3.77118170756285      2.88457441193909      1.76867508469286
| 27>   C          -4.01739216676766      2.34054973551222      3.10122716309423
| 28>   C          -3.85614178422194      4.33588856571949      1.63797108291690
| 29>   H          -3.03912275475901      4.82472393180385      2.17902656732153
| 30>   H          -4.80521286201387      4.67869671077051      2.05377235762054
| 31>   H          -3.80218990846560      4.61222062841991      0.58893399034641
| 32>   H          -3.19177527611926      2.58491078536515      3.77774275594525
| 33>   H          -4.13168379828869      1.26244043505082      3.05922931469206
| 34>   H          -4.93478277180919      2.78007736411646      3.49646578467145
| 35>   H          -0.97832031104183     -2.64475422314052     -2.16906024094913
| 36>   H          -4.36927705816516     -1.12382015138147     -0.00524316965085
| 37>   H          -3.37527826990262     -2.84753317007491     -1.53236867161053
| 38>   H           1.14791602553857     -1.53837109182497     -2.03505883459005
| 39>   H           2.62847424415011      0.19409767985463     -1.07087169748062
| 40>   H          -0.27167344480305      3.22972593998189      3.05333190415085
| 41>   H           2.07910611496579      3.55422805880488      2.34568690624500
| 42>   H           3.02930262192065      2.03906735926010      0.55236325646103
| 43> *
| 44> 
| 45>                          ****END OF INPUT****
================================================================================

                       *****************************
                       * Geometry Optimization Run *
                       *****************************

Geometry optimization settings:
Update method            Update   .... BFGS
Choice of coordinates    CoordSys .... (2022) Redundant Internals
Initial Hessian          InHess   .... Almloef's Model
Max. no of cycles        MaxIter  .... 102

Convergence Tolerances:
Energy Change            TolE     ....  2.0000e-07 Eh
Max. Gradient            TolMAXG  ....  3.0000e-05 Eh/bohr
RMS Gradient             TolRMSG  ....  8.0000e-06 Eh/bohr
Max. Displacement        TolMAXD  ....  2.0000e-04 bohr
RMS Displacement         TolRMSD  ....  1.0000e-04 bohr
Strict Convergence                .... False

------------------------------------------------------------------------------
                        ORCA OPTIMIZATION COORDINATE SETUP
------------------------------------------------------------------------------

The optimization will be done in redundant internal coordinates (2022)
Making redundant internal coordinates   ...  (2022 redundants) done
Evaluating the initial hessian          ...  (Almloef) done
Evaluating the coordinates              ...  done
Calculating the B-matrix                .... done
Calculating the G-matrix                .... done
Diagonalizing the G-matrix              .... done
Small eigenvalue found = 2.875e-03
Small eigenvalue found = 6.918e-03
Small eigenvalue found = 1.264e-02
Small eigenvalue found = 2.461e-02
The first mode is                       ....   77
The number of degrees of freedom        ....   96

    -----------------------------------------------------------------
                    Redundant Internal Coordinates


    -----------------------------------------------------------------
         Definition                    Initial Value    Approx d2E/dq
    -----------------------------------------------------------------
      1. B(C   1,C   0)                  1.3976         0.607565   
      2. B(C   2,C   1)                  1.3904         0.623770   
      3. B(C   3,C   0)                  1.4051         0.591168   
      4. B(C   4,C   3)                  1.4317         0.536121   
      5. B(O   5,C   3)                  1.3623         0.619622   
      6. B(C   6,C   4)                  1.4513         0.498767   
      7. B(C   6,C   2)                  1.4224         0.554680   
      8. B(C   7,C   6)                  1.4019         0.598149   
      9. B(C   8,C   7)                  1.3959         0.611408   
     10. B(C   9,C   4)                  1.4359         0.527933   
     11. B(C  10,C   9)                  1.4486         0.503720   
     12. B(C  10,C   8)                  1.4107         0.579098   
     13. B(N  11,C   9)                  1.3625         0.619131   
     14. B(C  12,N  11)                  1.3524         0.642514   
     15. B(C  13,C  12)                  1.3918         0.620788   
     16. B(C  14,C  13)                  1.4006         0.600989   
     17. B(C  14,C  10)                  1.4190         0.561603   
     18. B(C  15,O   5)                  1.3986         0.542115   
     19. B(O  16,C  15)                  1.2130         1.072373   
     20. B(N  17,C  15)                  1.3468         0.655816   
     21. B(C  18,N  17)                  1.4602         0.432339   
     22. B(C  19,N  17)                  1.4597         0.433245   
     23. B(H  20,C  19)                  1.0951         0.353430   
     24. B(H  21,C  19)                  1.0914         0.358259   
     25. B(H  22,C  19)                  1.0862         0.365212   
     26. B(H  23,C  18)                  1.0950         0.353544   
     27. B(H  24,C  18)                  1.0850         0.366825   
     28. B(H  25,C  18)                  1.0913         0.358343   
     29. B(H  26,C   2)                  1.0849         0.366931   
     30. B(H  27,C   0)                  1.0835         0.368742   
     31. B(H  28,C   1)                  1.0831         0.369375   
     32. B(H  29,C   7)                  1.0846         0.367339   
     33. B(H  30,C   8)                  1.0857         0.365891   
     34. B(H  31,C  12)                  1.0873         0.363643   
     35. B(H  32,C  13)                  1.0846         0.367309   
     36. B(H  33,C  14)                  1.0843         0.367709   
     37. A(C   1,C   0,C   3)          120.9668         0.428805   
     38. A(C   3,C   0,H  27)          117.6662         0.351485   
     39. A(C   1,C   0,H  27)          121.2880         0.353115   
     40. A(C   2,C   1,H  28)          120.7623         0.354797   
     41. A(C   0,C   1,C   2)          118.8270         0.432959   
     42. A(C   0,C   1,H  28)          120.3764         0.353218   
     43. A(C   1,C   2,H  26)          120.0896         0.354398   
     44. A(C   1,C   2,C   6)          121.6797         0.425942   
     45. A(C   6,C   2,H  26)          118.2239         0.347439   
     46. A(C   4,C   3,O   5)          124.2110         0.420105   
     47. A(C   0,C   3,C   4)          122.2334         0.419319   
     48. A(C   0,C   3,O   5)          113.5409         0.427511   
     49. A(C   3,C   4,C   9)          124.8465         0.410968   
     50. A(C   3,C   4,C   6)          115.4537         0.406853   
     51. A(C   6,C   4,C   9)          119.6082         0.405748   
     52. A(C   3,O   5,C  15)          120.5013         0.418208   
     53. A(C   4,C   6,C   7)          119.4698         0.414828   
     54. A(C   2,C   6,C   7)          120.0432         0.422758   
     55. A(C   2,C   6,C   4)          120.4652         0.409311   
     56. A(C   6,C   7,H  29)          119.2637         0.351956   
     57. A(C   6,C   7,C   8)          120.7353         0.430196   
     58. A(C   8,C   7,H  29)          120.0007         0.353265   
     59. A(C   7,C   8,H  30)          119.5829         0.353028   
     60. A(C  10,C   8,H  30)          118.7429         0.349804   
     61. A(C   7,C   8,C  10)          121.6651         0.427705   
     62. A(C   4,C   9,C  10)          118.6812         0.406457   
     63. A(C  10,C   9,N  11)          121.3772         0.415407   
     64. A(C   4,C   9,N  11)          119.9408         0.418894   
     65. A(C   9,C  10,C  14)          118.4072         0.410930   
     66. A(C   8,C  10,C  14)          122.2572         0.421253   
     67. A(C   8,C  10,C   9)          119.3341         0.413173   
     68. A(C   9,N  11,C  12)          117.9787         0.431053   
     69. A(N  11,C  12,H  31)          115.4173         0.353444   
     70. A(N  11,C  12,C  13)          124.5487         0.434100   
     71. A(C  13,C  12,H  31)          120.0196         0.353570   
     72. A(C  12,C  13,H  32)          119.8906         0.354172   
     73. A(C  12,C  13,C  14)          118.7928         0.431741   
     74. A(C  14,C  13,H  32)          121.2736         0.352234   
     75. A(C  10,C  14,H  33)          119.6246         0.348290   
     76. A(C  10,C  14,C  13)          118.7143         0.424056   
     77. A(C  13,C  14,H  33)          121.6561         0.352298   
     78. A(O  16,C  15,N  17)          127.2892         0.478138   
     79. A(O   5,C  15,N  17)          110.8490         0.422465   
     80. A(O   5,C  15,O  16)          121.5016         0.461724   
     81. A(C  18,N  17,C  19)          116.2526         0.377441   
     82. A(C  15,N  17,C  19)          118.2787         0.405967   
     83. A(C  15,N  17,C  18)          124.0310         0.405817   
     84. A(H  24,C  18,H  25)          109.0060         0.291462   
     85. A(H  23,C  18,H  25)          108.6741         0.289779   
     86. A(N  17,C  18,H  25)          108.7951         0.329962   
     87. A(H  23,C  18,H  24)          108.9711         0.290845   
     88. A(N  17,C  18,H  24)          110.6491         0.331241   
     89. A(N  17,C  18,H  23)          110.7033         0.329227   
     90. A(H  21,C  19,H  22)          109.3442         0.291250   
     91. A(H  20,C  19,H  22)          109.0602         0.290629   
     92. A(N  17,C  19,H  22)          109.6667         0.331114   
     93. A(H  20,C  19,H  21)          108.6834         0.289754   
     94. A(N  17,C  19,H  21)          109.1962         0.330063   
     95. A(N  17,C  19,H  20)          110.8651         0.329324   
     96. D(H  28,C   1,C   0,C   3)   -178.6816         0.025483   
     97. D(C   2,C   1,C   0,C   3)     -0.7970         0.025483   
     98. D(H  28,C   1,C   0,H  27)     -1.9880         0.025483   
     99. D(C   2,C   1,C   0,H  27)    175.8966         0.025483   
    100. D(C   6,C   2,C   1,C   0)      2.6068         0.026944   
    101. D(H  26,C   2,C   1,C   0)   -178.3533         0.026944   
    102. D(C   6,C   2,C   1,H  28)   -179.5170         0.026944   
    103. D(H  26,C   2,C   1,H  28)     -0.4771         0.026944   
    104. D(O   5,C   3,C   0,C   1)    176.9634         0.024055   
    105. D(C   4,C   3,C   0,H  27)    178.8110         0.024055   
    106. D(C   4,C   3,C   0,C   1)     -4.3792         0.024055   
    107. D(O   5,C   3,C   0,H  27)      0.1535         0.024055   
    108. D(C   6,C   4,C   3,O   5)   -174.2420         0.019631   
    109. D(C   9,C   4,C   3,C   0)   -169.2447         0.019631   
    110. D(C   9,C   4,C   3,O   5)      9.2669         0.019631   
    111. D(C   6,C   4,C   3,C   0)      7.2464         0.019631   
    112. D(C  15,O   5,C   3,C   4)     55.2927         0.028166   
    113. D(C  15,O   5,C   3,C   0)   -126.0806         0.028166   
    114. D(C   7,C   6,C   4,C   9)     -6.9689         0.016944   
    115. D(C   7,C   6,C   4,C   3)    176.3431         0.016944   
    116. D(C   2,C   6,C   4,C   9)    171.3355         0.016944   
    117. D(C   2,C   6,C   4,C   3)     -5.3525         0.016944   
    118. D(C   7,C   6,C   2,H  26)     -0.1409         0.021060   
    119. D(C   7,C   6,C   2,C   1)    178.9164         0.021060   
    120. D(C   4,C   6,C   2,H  26)   -178.4355         0.021060   
    121. D(C   4,C   6,C   2,C   1)      0.6217         0.021060   
    122. D(H  29,C   7,C   6,C   4)   -178.9740         0.024657   
    123. D(H  29,C   7,C   6,C   2)      2.7144         0.024657   
    124. D(C   8,C   7,C   6,C   4)      1.2227         0.024657   
    125. D(C   8,C   7,C   6,C   2)   -177.0890         0.024657   
    126. D(C  10,C   8,C   7,C   6)      3.3663         0.025824   
    127. D(H  30,C   8,C   7,H  29)      2.4517         0.025824   
    128. D(H  30,C   8,C   7,C   6)   -177.7464         0.025824   
    129. D(C  10,C   8,C   7,H  29)   -176.4356         0.025824   
    130. D(N  11,C   9,C   4,C   6)   -171.6103         0.019021   
    131. D(N  11,C   9,C   4,C   3)      4.7454         0.019021   
    132. D(C  10,C   9,C   4,C   6)      8.0882         0.019021   
    133. D(C  10,C   9,C   4,C   3)   -175.5562         0.019021   
    134. D(C  14,C  10,C   9,N  11)     -4.3823         0.017286   
    135. D(C  14,C  10,C   9,C   4)    175.9237         0.017286   
    136. D(C   8,C  10,C   9,N  11)    176.0511         0.017286   
    137. D(C   8,C  10,C   9,C   4)     -3.6429         0.017286   
    138. D(C  14,C  10,C   8,H  30)     -0.5634         0.023037   
    139. D(C  14,C  10,C   8,C   7)    178.3329         0.023037   
    140. D(C   9,C  10,C   8,H  30)    178.9857         0.023037   
    141. D(C   9,C  10,C   8,C   7)     -2.1179         0.023037   
    142. D(C  12,N  11,C   9,C  10)      4.4463         0.028118   
    143. D(C  12,N  11,C   9,C   4)   -175.8635         0.028118   
    144. D(H  31,C  12,N  11,C   9)   -179.7986         0.030453   
    145. D(C  13,C  12,N  11,C   9)     -1.1886         0.030453   
    146. D(H  32,C  13,C  12,H  31)     -1.2431         0.026671   
    147. D(H  32,C  13,C  12,N  11)   -179.7931         0.026671   
    148. D(C  14,C  13,C  12,H  31)    176.4029         0.026671   
    149. D(C  14,C  13,C  12,N  11)     -2.1471         0.026671   
    150. D(H  33,C  14,C  13,H  32)      0.5327         0.024904   
    151. D(H  33,C  14,C  13,C  12)   -177.0795         0.024904   
    152. D(C  10,C  14,C  13,H  32)    179.7195         0.024904   
    153. D(C  10,C  14,C  13,C  12)      2.1073         0.024904   
    154. D(H  33,C  14,C  10,C   9)   -179.8305         0.021609   
    155. D(H  33,C  14,C  10,C   8)     -0.2773         0.021609   
    156. D(C  13,C  14,C  10,C   9)      0.9658         0.021609   
    157. D(C  13,C  14,C  10,C   8)   -179.4810         0.021609   
    158. D(O  16,C  15,O   5,C   3)     17.8006         0.021228   
    159. D(N  17,C  15,O   5,C   3)   -168.6148         0.021228   
    160. D(C  19,N  17,C  15,O  16)     -5.6757         0.035155   
    161. D(C  19,N  17,C  15,O   5)   -178.7982         0.035155   
    162. D(C  18,N  17,C  15,O  16)   -171.4557         0.035155   
    163. D(C  18,N  17,C  15,O   5)     15.4218         0.035155   
    164. D(H  25,C  18,N  17,C  15)   -145.1764         0.015936   
    165. D(H  24,C  18,N  17,C  19)    168.5096         0.015936   
    166. D(H  24,C  18,N  17,C  15)    -25.4483         0.015936   
    167. D(H  23,C  18,N  17,C  19)    -70.5717         0.015936   
    168. D(H  23,C  18,N  17,C  15)     95.4703         0.015936   
    169. D(H  22,C  19,N  17,C  15)     21.4322         0.016003   
    170. D(H  21,C  19,N  17,C  18)    -51.8923         0.016003   
    171. D(H  21,C  19,N  17,C  15)    141.2276         0.016003   
    172. D(H  20,C  19,N  17,C  18)     67.8244         0.016003   
    173. D(H  20,C  19,N  17,C  15)    -99.0557         0.016003   
    -----------------------------------------------------------------

Number of atoms                         .... 34
Number of degrees of freedom            .... 173


         *************************************************************
         *                GEOMETRY OPTIMIZATION CYCLE   1            *
         *************************************************************
---------------------------------
CARTESIAN COORDINATES (ANGSTROEM)
---------------------------------
  C     -3.315563   -1.107503   -0.257212
  C     -2.761249   -2.055399   -1.121823
  C     -1.422590   -1.935932   -1.478286
  C     -2.537062   -0.058802    0.260820
  C     -1.131161    0.044128    0.010787
  O     -3.243434    0.812898    1.033438
  C     -0.595850   -0.909489   -0.943363
  C      0.755386   -0.834624   -1.309127
  C      1.594258    0.129188   -0.747090
  C     -0.243261    0.952848    0.679774
  C      1.140009    1.013412    0.253816
  N     -0.706927    1.731273    1.697329
  C      0.140189    2.633444    2.242706
  C      1.464782    2.808378    1.853060
  C      1.991036    1.974674    0.858271
  C     -3.221358    2.184033    0.758312
  O     -2.859814    2.608579   -0.318859
  N     -3.771182    2.884574    1.768675
  C     -4.017392    2.340550    3.101227
  C     -3.856142    4.335889    1.637971
  H     -3.039123    4.824724    2.179027
  H     -4.805213    4.678697    2.053772
  H     -3.802190    4.612221    0.588934
  H     -3.191775    2.584911    3.777743
  H     -4.131684    1.262440    3.059229
  H     -4.934783    2.780077    3.496466
  H     -0.978320   -2.644754   -2.169060
  H     -4.369277   -1.123820   -0.005243
  H     -3.375278   -2.847533   -1.532369
  H      1.147916   -1.538371   -2.035059
  H      2.628474    0.194098   -1.070872
  H     -0.271673    3.229726    3.053332
  H      2.079106    3.554228    2.345687
  H      3.029303    2.039067    0.552363

----------------------------
CARTESIAN COORDINATES (A.U.)
----------------------------
  NO LB      ZA    FRAG     MASS         X           Y           Z
   0 C     6.0000    0    12.011   -6.265505   -2.092877   -0.486061
   1 C     6.0000    0    12.011   -5.218004   -3.884141   -2.119938
   2 C     6.0000    0    12.011   -2.688306   -3.658382   -2.793555
   3 C     6.0000    0    12.011   -4.794352   -0.111121    0.492879
   4 C     6.0000    0    12.011   -2.137585    0.083390    0.020385
   5 O     8.0000    0    15.999   -6.129201    1.536155    1.952916
   6 C     6.0000    0    12.011   -1.125992   -1.718685   -1.782697
   7 C     6.0000    0    12.011    1.427472   -1.577211   -2.473891
   8 C     6.0000    0    12.011    3.012711    0.244131   -1.411795
   9 C     6.0000    0    12.011   -0.459696    1.800621    1.284587
  10 C     6.0000    0    12.011    2.154306    1.915071    0.479643
  11 N     7.0000    0    14.007   -1.335898    3.271632    3.207487
  12 C     6.0000    0    12.011    0.264919    4.976488    4.238100
  13 C     6.0000    0    12.011    2.768038    5.307066    3.501776
  14 C     6.0000    0    12.011    3.762512    3.731592    1.621897
  15 C     6.0000    0    12.011   -6.087484    4.127225    1.433002
  16 O     8.0000    0    15.999   -5.404265    4.929499   -0.602556
  17 N     7.0000    0    14.007   -7.126501    5.451056    3.342312
  18 C     6.0000    0    12.011   -7.591771    4.422998    5.860470
  19 C     6.0000    0    12.011   -7.287052    8.193642    3.095317
  20 H     1.0000    0     1.008   -5.743110    9.117407    4.117763
  21 H     1.0000    0     1.008   -9.080536    8.841455    3.881067
  22 H     1.0000    0     1.008   -7.185098    8.715834    1.112924
  23 H     1.0000    0     1.008   -6.031581    4.884773    7.138899
  24 H     1.0000    0     1.008   -7.807751    2.385667    5.781106
  25 H     1.0000    0     1.008   -9.325388    5.253585    6.607363
  26 H     1.0000    0     1.008   -1.848757   -4.997861   -4.098930
  27 H     1.0000    0     1.008   -8.256737   -2.123712   -0.009908
  28 H     1.0000    0     1.008   -6.378352   -5.381058   -2.895757
  29 H     1.0000    0     1.008    2.169247   -2.907100   -3.845704
  30 H     1.0000    0     1.008    4.967096    0.366791   -2.023654
  31 H     1.0000    0     1.008   -0.513388    6.103298    5.769961
  32 H     1.0000    0     1.008    3.928941    6.716518    4.432706
  33 H     1.0000    0     1.008    5.724552    3.853279    1.043815

--------------------------------
INTERNAL COORDINATES (ANGSTROEM)
--------------------------------
 C      0   0   0     0.000000000000     0.00000000     0.00000000
 C      1   0   0     1.397612625639     0.00000000     0.00000000
 C      2   1   0     1.390447652144   118.82695959     0.00000000
 C      1   2   3     1.405060308252   120.96684303   359.20298222
 C      4   1   2     1.431666041006   122.23337278   355.62077366
 O      4   1   2     1.362263754254   113.54089865   176.96335262
 C      3   2   1     1.422402477982   121.67969214     2.60677867
 C      7   3   2     1.401864555779   120.04320076   178.91638184
 C      8   7   3     1.395896641146   120.73530799   182.91102254
 C      5   4   1     1.435855535709   124.84650703   190.75530970
 C      9   8   7     1.410675630657   121.66508057     3.36630927
 N     10   5   4     1.362479733802   119.94082247     4.74535496
 C     12  10   5     1.352388308758   117.97872711   184.13645921
 C     13  12  10     1.391752230494   124.54865623   358.81137095
 C     14  13  12     1.400575058885   118.79275242   357.85286342
 C      6   4   1     1.398639613030   120.50129685   233.91937609
 O     16   6   4     1.212950973638   121.50156895    17.80059103
 N     16   6   4     1.346810179601   110.84898281   191.38517975
 C     18  16   6     1.460231995415   124.03101645    15.42184701
 C     18  16   6     1.459662469090   118.27866274   181.20177425
 H     20  18  16     1.095089561106   110.86507856   260.94430915
 H     20  18  16     1.091395453106   109.19624190   141.22763977
 H     20  18  16     1.086162527140   109.66672545    21.43217396
 H     19  18  16     1.095001790035   110.70334618    95.47029047
 H     19  18  16     1.084963621532   110.64912510   334.55166241
 H     19  18  16     1.091331125970   108.79513132   214.82357413
 H      3   2   1     1.084884338168   120.08964963   181.64674629
 H      1   2   3     1.083544682419   121.28803253   175.89657208
 H      2   1   3     1.083077683490   120.37643717   182.11537936
 H      8   7   3     1.084581800522   119.26371182     2.71436139
 H      9   8   7     1.085656920124   119.58291000   182.25355099
 H     13  12  10     1.087334622474   115.41730154   180.20136108
 H     14  13  12     1.084604420145   119.89062701   180.20686316
 H     15  14  13     1.084308291319   121.65609040   182.92054391

---------------------------
INTERNAL COORDINATES (A.U.)
---------------------------
 C      0   0   0     0.000000000000     0.00000000     0.00000000
 C      1   0   0     2.641105103769     0.00000000     0.00000000
 C      2   1   0     2.627565266106   118.82695959     0.00000000
 C      1   2   3     2.655179184240   120.96684303   359.20298222
 C      4   1   2     2.705456732737   122.23337278   355.62077366
 O      4   1   2     2.574305417708   113.54089865   176.96335262
 C      3   2   1     2.687951135596   121.67969214     2.60677867
 C      7   3   2     2.649140087274   120.04320076   178.91638184
 C      8   7   3     2.637862363026   120.73530799   182.91102254
 C      5   4   1     2.713373730365   124.84650703   190.75530970
 C      9   8   7     2.665790605739   121.66508057     3.36630927
 N     10   5   4     2.574713559903   119.94082247     4.74535496
 C     12  10   5     2.555643530269   117.97872711   184.13645921
 C     13  12  10     2.630030561908   124.54865623   358.81137095
 C     14  13  12     2.646703291294   118.79275242   357.85286342
 C      6   4   1     2.643045828680   120.50129685   233.91937609
 O     16   6   4     2.292145154049   121.50156895    17.80059103
 N     16   6   4     2.545102393824   110.84898281   191.38517975
 C     18  16   6     2.759438563325   124.03101645    15.42184701
 C     18  16   6     2.758362314543   118.27866274   181.20177425
 H     20  18  16     2.069419362607   110.86507856   260.94430915
 H     20  18  16     2.062438510177   109.19624190   141.22763977
 H     20  18  16     2.052549713222   109.66672545    21.43217396
 H     19  18  16     2.069253499320   110.70334618    95.47029047
 H     19  18  16     2.050284109963   110.64912510   334.55166241
 H     19  18  16     2.062316949507   108.79513132   214.82357413
 H      3   2   1     2.050134286118   120.08964963   181.64674629
 H      1   2   3     2.047602703639   121.28803253   175.89657208
 H      2   1   3     2.046720203558   120.37643717   182.11537936
 H      8   7   3     2.049562572822   119.26371182     2.71436139
 H      9   8   7     2.051594254430   119.58291000   182.25355099
 H     13  12  10     2.054764652407   115.41730154   180.20136108
 H     14  13  12     2.049605317715   119.89062701   180.20686316
 H     15  14  13     2.049045715333   121.65609040   182.92054391

---------------------
BASIS SET INFORMATION
---------------------
There are 4 groups of distinct atoms

 Group   1 Type C   : 11s6p2d contracted to 5s3p2d pattern {62111/411/11}
 Group   2 Type O   : 11s6p2d contracted to 5s3p2d pattern {62111/411/11}
 Group   3 Type N   : 11s6p2d contracted to 5s3p2d pattern {62111/411/11}
 Group   4 Type H   : 5s1p contracted to 3s1p pattern {311/1}

Atom   0C    basis set group =>   1
Atom   1C    basis set group =>   1
Atom   2C    basis set group =>   1
Atom   3C    basis set group =>   1
Atom   4C    basis set group =>   1
Atom   5O    basis set group =>   2
Atom   6C    basis set group =>   1
Atom   7C    basis set group =>   1
Atom   8C    basis set group =>   1
Atom   9C    basis set group =>   1
Atom  10C    basis set group =>   1
Atom  11N    basis set group =>   3
Atom  12C    basis set group =>   1
Atom  13C    basis set group =>   1
Atom  14C    basis set group =>   1
Atom  15C    basis set group =>   1
Atom  16O    basis set group =>   2
Atom  17N    basis set group =>   3
Atom  18C    basis set group =>   1
Atom  19C    basis set group =>   1
Atom  20H    basis set group =>   4
Atom  21H    basis set group =>   4
Atom  22H    basis set group =>   4
Atom  23H    basis set group =>   4
Atom  24H    basis set group =>   4
Atom  25H    basis set group =>   4
Atom  26H    basis set group =>   4
Atom  27H    basis set group =>   4
Atom  28H    basis set group =>   4
Atom  29H    basis set group =>   4
Atom  30H    basis set group =>   4
Atom  31H    basis set group =>   4
Atom  32H    basis set group =>   4
Atom  33H    basis set group =>   4
---------------------------------
AUXILIARY/J BASIS SET INFORMATION
---------------------------------
There are 4 groups of distinct atoms

 Group   1 Type C   : 12s5p4d2f1g contracted to 6s4p3d1f1g pattern {711111/2111/211/2/1}
 Group   2 Type O   : 12s5p4d2f1g contracted to 6s4p3d1f1g pattern {711111/2111/211/2/1}
 Group   3 Type N   : 12s5p4d2f1g contracted to 6s4p3d1f1g pattern {711111/2111/211/2/1}
 Group   4 Type H   : 5s2p1d contracted to 3s1p1d pattern {311/2/1}

Atom   0C    basis set group =>   1
Atom   1C    basis set group =>   1
Atom   2C    basis set group =>   1
Atom   3C    basis set group =>   1
Atom   4C    basis set group =>   1
Atom   5O    basis set group =>   2
Atom   6C    basis set group =>   1
Atom   7C    basis set group =>   1
Atom   8C    basis set group =>   1
Atom   9C    basis set group =>   1
Atom  10C    basis set group =>   1
Atom  11N    basis set group =>   3
Atom  12C    basis set group =>   1
Atom  13C    basis set group =>   1
Atom  14C    basis set group =>   1
Atom  15C    basis set group =>   1
Atom  16O    basis set group =>   2
Atom  17N    basis set group =>   3
Atom  18C    basis set group =>   1
Atom  19C    basis set group =>   1
Atom  20H    basis set group =>   4
Atom  21H    basis set group =>   4
Atom  22H    basis set group =>   4
Atom  23H    basis set group =>   4
Atom  24H    basis set group =>   4
Atom  25H    basis set group =>   4
Atom  26H    basis set group =>   4
Atom  27H    basis set group =>   4
Atom  28H    basis set group =>   4
Atom  29H    basis set group =>   4
Atom  30H    basis set group =>   4
Atom  31H    basis set group =>   4
Atom  32H    basis set group =>   4
Atom  33H    basis set group =>   4
---------------------------------
AUXILIARY/C BASIS SET INFORMATION
---------------------------------
There are 4 groups of distinct atoms

 Group   1 Type C   : 8s6p5d3f1g contracted to 8s6p4d3f1g pattern {11111111/111111/2111/111/1}
 Group   2 Type O   : 8s6p5d3f1g contracted to 8s6p4d3f1g pattern {11111111/111111/2111/111/1}
 Group   3 Type N   : 8s6p5d3f1g contracted to 8s6p4d3f1g pattern {11111111/111111/2111/111/1}
 Group   4 Type H   : 4s3p2d contracted to 4s2p1d pattern {1111/21/2}

Atom   0C    basis set group =>   1
Atom   1C    basis set group =>   1
Atom   2C    basis set group =>   1
Atom   3C    basis set group =>   1
Atom   4C    basis set group =>   1
Atom   5O    basis set group =>   2
Atom   6C    basis set group =>   1
Atom   7C    basis set group =>   1
Atom   8C    basis set group =>   1
Atom   9C    basis set group =>   1
Atom  10C    basis set group =>   1
Atom  11N    basis set group =>   3
Atom  12C    basis set group =>   1
Atom  13C    basis set group =>   1
Atom  14C    basis set group =>   1
Atom  15C    basis set group =>   1
Atom  16O    basis set group =>   2
Atom  17N    basis set group =>   3
Atom  18C    basis set group =>   1
Atom  19C    basis set group =>   1
Atom  20H    basis set group =>   4
Atom  21H    basis set group =>   4
Atom  22H    basis set group =>   4
Atom  23H    basis set group =>   4
Atom  24H    basis set group =>   4
Atom  25H    basis set group =>   4
Atom  26H    basis set group =>   4
Atom  27H    basis set group =>   4
Atom  28H    basis set group =>   4
Atom  29H    basis set group =>   4
Atom  30H    basis set group =>   4
Atom  31H    basis set group =>   4
Atom  32H    basis set group =>   4
Atom  33H    basis set group =>   4
------------------------------------------------------------------------------
                             ORCA STARTUP CALCULATIONS
                           -- RI-GTO INTEGRALS CHOSEN --
------------------------------------------------------------------------------
------------------------------------------------------------------------------
                   ___                                                        
                  /   \      - P O W E R E D   B Y -                         
                 /     \                                                     
                 |  |  |   _    _      __       _____    __    __             
                 |  |  |  | |  | |    /  \     |  _  \  |  |  /  |          
                  \  \/   | |  | |   /    \    | | | |  |  | /  /          
                 / \  \   | |__| |  /  /\  \   | |_| |  |  |/  /          
                |  |  |   |  __  | /  /__\  \  |    /   |      \           
                |  |  |   | |  | | |   __   |  |    \   |  |\   \          
                \     /   | |  | | |  |  |  |  | |\  \  |  | \   \       
                 \___/    |_|  |_| |__|  |__|  |_| \__\ |__|  \__/        
                                                                              
                      - O R C A' S   B I G   F R I E N D -                    
                                      &                                       
                       - I N T E G R A L  F E E D E R -                       
                                                                              
 v1 FN, 2020, v2 2021, v3 2022-2024                                           
------------------------------------------------------------------------------


----------------------
SHARK INTEGRAL PACKAGE
----------------------

Number of atoms                             ...     34
Number of basis functions                   ...    564
Number of shells                            ...    256
Maximum angular momentum                    ...      2
Integral batch strategy                     ... SHARK/LIBINT Hybrid
RI-J (if used) integral strategy            ... SPLIT-RIJ (Revised 2003 algorithm where possible)
Printlevel                                  ...      1
Contraction scheme used                     ... SEGMENTED contraction
Prescreening option                         ... SCHWARTZ
   Thresh                                   ... 2.500e-11
   Tcut                                     ... 2.500e-12
   Tpresel                                  ... 2.500e-12 
Coulomb Range Separation                    ... NOT USED
Exchange Range Separation                   ... NOT USED
Multipole approximations                    ... NOT USED
Finite Nucleus Model                        ... NOT USED
CABS basis                                  ... NOT available
Auxiliary Coulomb fitting basis             ... AVAILABLE
   # of basis functions in Aux-J            ...   1134
   # of shells in Aux-J                     ...    370
   Maximum angular momentum in Aux-J        ...      4
Auxiliary J/K fitting basis                 ... NOT available
Auxiliary Correlation fitting basis         ... AVAILABLE
   # of basis functions in Aux-C            ...   1730
   # of shells in Aux-C                     ...    538
   Maximum angular momentum in Aux-C        ...      4
Auxiliary 'external' fitting basis          ... NOT available

Checking pre-screening integrals            ... done (  0.0 sec) Dimension = 256
Check shell pair data                       ... done (  0.0 sec)
Shell pair information
Shell pair cut-off parameter TPreSel        ...   2.5e-12
Total number of shell pairs                 ...     32896
Shell pairs after pre-screening             ...     25286
Total number of primitive shell pairs       ...    108362
Primitive shell pairs kept                  ...     55265
          la=0 lb=0:   7353 shell pairs
          la=1 lb=0:   8261 shell pairs
          la=1 lb=1:   2329 shell pairs
          la=2 lb=0:   4260 shell pairs
          la=2 lb=1:   2419 shell pairs
          la=2 lb=2:    664 shell pairs

Calculating one electron integrals          ... done (  0.1 sec)
Calculating RI/J V-Matrix + Cholesky decomp.... done (  1.8 sec)
Calculating RI/C V-Matrix + Cholesky decomp.... done (  4.2 sec)
Calculating Nuclear repulsion               ... done (  0.0 sec) ENN=   1519.440342110624 Eh

Diagonalization of the overlap matrix:
Smallest eigenvalue                        ... 5.038e-06
Time for diagonalization                   ...    0.023 sec
Threshold for overlap eigenvalues          ... 1.000e-07
Number of eigenvalues below threshold      ... 0
Time for construction of square roots      ...    0.235 sec
Total time needed                          ...    0.338 sec

-------------------
DFT GRID GENERATION
-------------------

General Integration Accuracy     IntAcc      ... 4.388
Radial Grid Type                 RadialGrid  ... OptM3 with GC (2021)
Angular Grid (max. ang.)         AngularGrid ... 4 (Lebedev-302)
Angular grid pruning method      GridPruning ... 4 (adaptive)
Weight generation scheme         WeightScheme... mBecke (2022)
Basis function cutoff            BFCut       ... 1.0000e-11
Integration weight cutoff        WCut        ... 1.0000e-14
Partially contracted basis set               ... off
Rotationally invariant grid construction     ... off
Angular grids for H and He will be reduced by one unit

Total number of grid points                  ...   164365
Total number of batches                      ...     2588
Average number of points per batch           ...       63
Average number of grid points per atom       ...     4834

--------------------
COSX GRID GENERATION
--------------------

GRIDX 1
-------
General Integration Accuracy     IntAcc      ... 3.816
Radial Grid Type                 RadialGrid  ... OptM3 with GC (2021)
Angular Grid (max. ang.)         AngularGrid ... 1 (Lebedev-50)
Angular grid pruning method      GridPruning ... 4 (adaptive)
Weight generation scheme         WeightScheme... mBecke (2022)
Basis function cutoff            BFCut       ... 1.0000e-11
Integration weight cutoff        WCut        ... 1.0000e-14
Partially contracted basis set               ... on
Rotationally invariant grid construction     ... off
Angular grids for H and He will be reduced by one unit

Total number of grid points                  ...    20913
Total number of batches                      ...      179
Average number of points per batch           ...      116
Average number of grid points per atom       ...      615
UseSFitting                                  ... on

GRIDX 2
-------
General Integration Accuracy     IntAcc      ... 4.020
Radial Grid Type                 RadialGrid  ... OptM3 with GC (2021)
Angular Grid (max. ang.)         AngularGrid ... 2 (Lebedev-110)
Angular grid pruning method      GridPruning ... 4 (adaptive)
Weight generation scheme         WeightScheme... mBecke (2022)
Basis function cutoff            BFCut       ... 1.0000e-11
Integration weight cutoff        WCut        ... 1.0000e-14
Partially contracted basis set               ... on
Rotationally invariant grid construction     ... off
Angular grids for H and He will be reduced by one unit

Total number of grid points                  ...    45628
Total number of batches                      ...      372
Average number of points per batch           ...      122
Average number of grid points per atom       ...     1342
UseSFitting                                  ... on

GRIDX 3
-------
General Integration Accuracy     IntAcc      ... 4.338
Radial Grid Type                 RadialGrid  ... OptM3 with GC (2021)
Angular Grid (max. ang.)         AngularGrid ... 3 (Lebedev-194)
Angular grid pruning method      GridPruning ... 4 (adaptive)
Weight generation scheme         WeightScheme... mBecke (2022)
Basis function cutoff            BFCut       ... 1.0000e-11
Integration weight cutoff        WCut        ... 1.0000e-14
Partially contracted basis set               ... on
Rotationally invariant grid construction     ... off
Angular grids for H and He will be reduced by one unit

Total number of grid points                  ...    99910
Total number of batches                      ...      799
Average number of points per batch           ...      125
Average number of grid points per atom       ...     2939
UseSFitting                                  ... on
Initializing property integral containers    ... done (  0.0 sec)

SHARK setup successfully completed in  23.7 seconds

Maximum memory used throughout the entire STARTUP-calculation: 105.2 MB
-------------------------------------------------------------------------------
                                 ORCA GUESS
                   Start orbitals & Density for SCF / CASSCF
-------------------------------------------------------------------------------

------------
SCF SETTINGS
------------
Hamiltonian:
 Density Functional     Method          .... DFT(GTOs)
 Exchange Functional    Exchange        .... B88
   X-Alpha parameter    XAlpha          ....  0.666667
   Becke's b parameter  XBeta           ....  0.004200
 Correlation Functional Correlation     .... LYP
 LDA part of GGA corr.  LDAOpt          .... VWN-3
 Gradients option       PostSCFGGA      .... off
 Hybrid DFT is turned on
   Fraction HF Exchange ScalHFX         ....  0.200000
   Scaling of DF-GGA-X  ScalDFX         ....  0.720000
   Scaling of DF-GGA-C  ScalDFC         ....  0.810000
   Scaling of DF-LDA-C  ScalLDAC        ....  1.000000
   Perturbative correction              ....  0.000000
   NL short-range parameter             ....  4.800000
 RI-approximation to the Coulomb term is turned on
   Number of AuxJ basis functions       .... 1134
   RIJ-COSX (HFX calculated with COS-X)).... on


General Settings:
 Integral files         IntName         .... hbq-es
 Hartree-Fock type      HFTyp           .... RHF
 Total Charge           Charge          ....    0
 Multiplicity           Mult            ....    1
 Number of Electrons    NEL             ....  140
 Basis Dimension        Dim             ....  564
 Nuclear Repulsion      ENuc            ....   1519.4403421106 Eh

Convergence Acceleration:
 AO-DIIS                CNVDIIS         .... on
   Start iteration      DIISMaxIt       ....    12
   Startup error        DIISStart       ....  0.200000
   # of expansion vecs  DIISMaxEq       ....     5
   Bias factor          DIISBfac        ....   1.050
   Max. coefficient     DIISMaxC        ....  10.000
 MO-DIIS                CNVKDIIS        .... off
 Trust-Rad. Augm. Hess. CNVTRAH         .... auto
   Auto Start mean grad. ratio tolernc. ....  1.125000
   Auto Start start iteration           ....    50
   Auto Start num. interpolation iter.  ....    10
   Max. Number of Micro iterations      ....    24
   Max. Number of Macro iterations      .... Maxiter - #DIIS iter
   Number of Davidson start vectors     ....     2
   Converg. threshold    (grad. norm)   ....   1.000e-05
   Grad. Scal. Fac. for Micro threshold ....   0.100
   Minimum threshold for Micro iter.    ....   1.000e-02
   NR start threshold (gradient norm)   ....   1.000e-04
   Initial trust radius                 ....   0.400
   Minimum AH scaling param. (alpha)    ....   1.000
   Maximum AH scaling param. (alpha)    .... 1000.000
   Quad. conv. algorithm                .... NR
   White noise on init. David. guess    .... on
   Maximum white noise                  ....   0.010
   Pseudo random numbers                .... off
   Inactive MOs                         .... canonical
   Orbital update algorithm             .... Taylor
   Preconditioner                       .... Diag
   Full preconditioner red. dimension   ....   250
 SOSCF                  CNVSOSCF        .... on
   Start iteration      SOSCFMaxIt      ....   150
   Startup grad/error   SOSCFStart      ....  0.003300
   Hessian update       SOSCFHessUp     .... L-BFGS
 Level Shifting         CNVShift        .... on
   Level shift para.    LevelShift      ....    0.2500
   Turn off err/grad.   ShiftErr        ....    0.0010
 Zerner damping         CNVZerner       .... off
 Static damping         CNVDamp         .... on
   Fraction old density DampFac         ....    0.7000
   Max. Damping (<1)    DampMax         ....    0.9800
   Min. Damping (>=0)   DampMin         ....    0.0000
   Turn off err/grad.   DampErr         ....    0.1000

SCF Procedure:
 Maximum # iterations   MaxIter         ....   125
 SCF integral mode      SCFMode         .... Direct
   Integral package                     .... SHARK and LIBINT hybrid scheme
 Reset frequency        DirectResetFreq ....    20
 Integral Threshold     Thresh          ....  2.500e-11 Eh
 Primitive CutOff       TCut            ....  2.500e-12 Eh

Convergence Tolerance:
 Convergence Check Mode ConvCheckMode   .... Total+1el-Energy
 Convergence forced     ConvForced      .... 1
 Energy Change          TolE            ....  1.000e-08 Eh
 1-El. energy change                    ....  1.000e-05 Eh
 Orbital Gradient       TolG            ....  1.000e-05
 Orbital Rotation angle TolX            ....  1.000e-05
 DIIS Error             TolErr          ....  5.000e-07

------------------------------
INITIAL GUESS: MODEL POTENTIAL
------------------------------
Loading Hartree-Fock densities                     ... done
Calculating cut-offs                               ... done
Initializing the effective Hamiltonian             ... done
Setting up the integral package (SHARK)            ... done
Starting the Coulomb interaction                   ... done (   1.0 sec)
Making the grid                                    ... done (   1.3 sec)
Mapping shells                                     ... done
Starting the XC term evaluation                    ... done (   0.6 sec)
  promolecular density results
     # of electrons  =    139.981337810
     EX              =   -115.983684372
     EC              =     -4.781641469
     EX+EC           =   -120.765325841
Transforming the Hamiltonian                       ... done (   0.0 sec)
Diagonalizing the Hamiltonian                      ... done (   0.1 sec)
Back transforming the eigenvectors                 ... done (   0.2 sec)
Now organizing SCF variables                       ... done
                      ------------------
                      INITIAL GUESS DONE (   4.2 sec)
                      ------------------
             **** ENERGY FILE WAS UPDATED (hbq-es.en.tmp) ****
Finished Guess after   8.8 sec
Maximum memory used throughout the entire GUESS-calculation: 73.3 MB

-------------------------------------------------------------------------------------------
                                      ORCA LEAN-SCF
                              memory conserving SCF solver
-------------------------------------------------------------------------------------------

--------------------
CPCM SOLVATION MODEL
--------------------
CPCM parameters:
  Epsilon                                         ...      80.1510
  Refrac                                          ...       1.3328
  Rsolv                                           ...       1.3000
  Surface type                                    ... GAUSSIAN VDW
  Discretization scheme                           ... Constant charge density
    Threshold for H atoms                         ...       5.0000 (charges/Ang^2)
    Threshold for non-H atoms                     ...       5.0000 (charges/Ang^2)
  Epsilon function type                           ...         CPCM
Solvent:                                          ... WATER
Radii:
  Scheme                                          ... Element-dependent radii
  Radius for C  used is    3.8550 Bohr (=   2.0400 Ang.)
  Radius for O  used is    3.4469 Bohr (=   1.8240 Ang.)
  Radius for N  used is    3.5149 Bohr (=   1.8600 Ang.)
  Radius for H  used is    2.4944 Bohr (=   1.3200 Ang.)
Calculating surface                               ...        done! (  0.0s)
Cavity surface points                             ...         3009
Cavity Volume                                     ...    2118.4384
Cavity Surface-area                               ...    1072.4324
Calculating surface distance matrix               ...        done! (  0.0s)
Performing Cholesky decomposition & store         ...        done! (  6.4s)
Overall time for CPCM initialization              ...                 6.4s

----------------------------------------D-I-I-S--------------------------------------------
Iteration    Energy (Eh)           Delta-E    RMSDP     MaxDP     DIISErr   Damp  Time(sec)
-------------------------------------------------------------------------------------------
               ***  Starting incremental Fock matrix formation  ***
    1    -877.9592991838085254     0.00e+00  1.87e-03  6.89e-02  3.06e-01  0.700  32.4
    2    -878.1743480262480261    -2.15e-01  1.71e-03  9.95e-02  1.20e-01  0.700  19.0
                               ***Turning on AO-DIIS***
    3    -878.2622388749682614    -8.79e-02  7.53e-04  2.84e-02  3.44e-02  0.700  19.5
    4    -878.3152196419355278    -5.30e-02  1.26e-03  5.17e-02  1.88e-02  0.000  18.5
    5    -878.4302648542216048    -1.15e-01  4.03e-04  3.00e-02  5.54e-03  0.000  18.9
                              *** Initializing SOSCF ***
---------------------------------------S-O-S-C-F--------------------------------------
Iteration    Energy (Eh)           Delta-E    RMSDP     MaxDP     MaxGrad    Time(sec)
--------------------------------------------------------------------------------------
    6    -878.4308899458023916    -6.25e-04  1.21e-04  8.30e-03  2.16e-03    18.6
               *** Restarting incremental Fock matrix formation ***
    7    -878.4308738310000990     1.61e-05  1.22e-04  1.05e-02  3.69e-04    31.7
    8    -878.4308534111237350     2.04e-05  4.35e-05  3.72e-03  8.70e-04    22.5
    9    -878.4308847492725363    -3.13e-05  6.33e-06  3.25e-04  2.24e-05    20.5
   10    -878.4308846534113400     9.59e-08  3.16e-06  1.54e-04  4.44e-05    18.1
   11    -878.4308848658924944    -2.12e-07  3.43e-06  2.78e-04  1.03e-05    16.7
   12    -878.4308848396035501     2.63e-08  1.16e-06  6.41e-05  1.31e-05    15.7
   13    -878.4308848710466009    -3.14e-08  5.77e-06  5.96e-04  1.32e-06    14.4
                  *** Gradient check signals convergence ***

               *****************************************************
               *                     SUCCESS                       *
               *           SCF CONVERGED AFTER  13 CYCLES          *
               *****************************************************

Recomputing exchange energy using gridx3       ... done (   45.802 sec)
Old exchange energy                            :    -23.528312193 Eh
New exchange energy                            :    -23.528301841 Eh
Exchange energy change after final integration :      0.000010353 Eh
Total energy after final integration           :   -878.430874518 Eh
             **** ENERGY FILE WAS UPDATED (hbq-es.en.tmp) ****

----------------
TOTAL SCF ENERGY
----------------

Total Energy       :       -878.43087451832275 Eh          -23903.31932 eV

Components:
Nuclear Repulsion  :       1519.44034211062399 Eh           41346.07370 eV
Electronic Energy  :      -2397.84812081818291 Eh          -65248.76455 eV
One Electron Energy:      -4212.33445424595357 Eh         -114623.44784 eV
Two Electron Energy:       1814.48633342777043 Eh           49374.68329 eV
CPCM Dielectric    :         -0.02310616348781 Eh              -0.62875 eV

Virial components:
Potential Energy   :      -1752.21671545845538 Eh          -47680.24084 eV
Kinetic Energy     :        873.78584094013263 Eh           23776.92153 eV
Virial Ratio       :          2.00531598632131

DFT components:
N(Alpha)           :       69.999975978005 electrons
N(Beta)            :       69.999975978005 electrons
N(Total)           :      139.999951956009 electrons
E(X)               :      -93.549216168414 Eh       
E(C)               :       -6.152592618447 Eh       
E(XC)              :      -99.701808786861 Eh       

CPCM Solvation Model Properties:
Surface-charge          :         -0.03278687311120
Corrected charge        :          0.00000000000000
Outlying charge corr.   :          0.00006078739682 Eh               0.00165 eV
Free-energy (cav+disp)  :  This term is not implemented in the current solvation scheme

---------------
SCF CONVERGENCE
---------------

  Last Energy change         ...    3.1443e-08  Tolerance :   1.0000e-08
  Last MAX-Density change    ...    5.9647e-04  Tolerance :   1.0000e-07
  Last RMS-Density change    ...    5.7658e-06  Tolerance :   5.0000e-09
  Last DIIS Error            ...    2.1550e-03  Tolerance :   5.0000e-07
  Last Orbital Gradient      ...    1.3229e-06  Tolerance :   1.0000e-05
  Last Orbital Rotation      ...    4.0017e-06  Tolerance :   1.0000e-05


----------------
ORBITAL ENERGIES
----------------

  NO   OCC          E(Eh)            E(eV) 
   0   2.0000     -19.174641      -521.7685 
   1   2.0000     -19.106294      -519.9087 
   2   2.0000     -14.355720      -390.6390 
   3   2.0000     -14.323874      -389.7724 
   4   2.0000     -10.325671      -280.9758 
   5   2.0000     -10.252163      -278.9755 
   6   2.0000     -10.228815      -278.3402 
   7   2.0000     -10.215695      -277.9832 
   8   2.0000     -10.203145      -277.6417 
   9   2.0000     -10.200876      -277.5799 
  10   2.0000     -10.200373      -277.5663 
  11   2.0000     -10.200074      -277.5581 
  12   2.0000     -10.198930      -277.5270 
  13   2.0000     -10.198160      -277.5060 
  14   2.0000     -10.187868      -277.2260 
  15   2.0000     -10.187513      -277.2163 
  16   2.0000     -10.186619      -277.1920 
  17   2.0000     -10.186004      -277.1753 
  18   2.0000     -10.182678      -277.0847 
  19   2.0000     -10.182251      -277.0731 
  20   2.0000      -1.116916       -30.3928 
  21   2.0000      -1.031662       -28.0729 
  22   2.0000      -0.950865       -25.8744 
  23   2.0000      -0.947460       -25.7817 
  24   2.0000      -0.876342       -23.8465 
  25   2.0000      -0.835065       -22.7233 
  26   2.0000      -0.806340       -21.9416 
  27   2.0000      -0.781949       -21.2779 
  28   2.0000      -0.751544       -20.4505 
  29   2.0000      -0.741860       -20.1870 
  30   2.0000      -0.722410       -19.6578 
  31   2.0000      -0.706002       -19.2113 
  32   2.0000      -0.659661       -17.9503 
  33   2.0000      -0.648464       -17.6456 
  34   2.0000      -0.627223       -17.0676 
  35   2.0000      -0.622423       -16.9370 
  36   2.0000      -0.572114       -15.5680 
  37   2.0000      -0.547683       -14.9032 
  38   2.0000      -0.538730       -14.6596 
  39   2.0000      -0.530435       -14.4339 
  40   2.0000      -0.511926       -13.9302 
  41   2.0000      -0.500133       -13.6093 
  42   2.0000      -0.492282       -13.3957 
  43   2.0000      -0.483481       -13.1562 
  44   2.0000      -0.480821       -13.0838 
  45   2.0000      -0.464708       -12.6454 
  46   2.0000      -0.445969       -12.1354 
  47   2.0000      -0.444628       -12.0990 
  48   2.0000      -0.438564       -11.9339 
  49   2.0000      -0.429262       -11.6808 
  50   2.0000      -0.423353       -11.5200 
  51   2.0000      -0.411719       -11.2035 
  52   2.0000      -0.408675       -11.1206 
  53   2.0000      -0.406161       -11.0522 
  54   2.0000      -0.404746       -11.0137 
  55   2.0000      -0.402197       -10.9443 
  56   2.0000      -0.387259       -10.5379 
  57   2.0000      -0.385673       -10.4947 
  58   2.0000      -0.376232       -10.2378 
  59   2.0000      -0.366528        -9.9737 
  60   2.0000      -0.355559        -9.6752 
  61   2.0000      -0.340662        -9.2699 
  62   2.0000      -0.322550        -8.7770 
  63   2.0000      -0.308553        -8.3962 
  64   2.0000      -0.294239        -8.0066 
  65   2.0000      -0.278553        -7.5798 
  66   2.0000      -0.269960        -7.3460 
  67   2.0000      -0.255256        -6.9459 
  68   2.0000      -0.246539        -6.7087 
  69   2.0000      -0.220814        -6.0086 
  70   0.0000      -0.072427        -1.9709 
  71   0.0000      -0.059017        -1.6059 
  72   0.0000      -0.018671        -0.5081 
  73   0.0000       0.008182         0.2227 
  74   0.0000       0.031981         0.8703 
  75   0.0000       0.042981         1.1696 
  76   0.0000       0.049036         1.3343 
  77   0.0000       0.060751         1.6531 
  78   0.0000       0.065072         1.7707 
  79   0.0000       0.079523         2.1639 
  80   0.0000       0.079951         2.1756 
*Only the first 10 virtual orbitals were printed.

                    ********************************
                    * MULLIKEN POPULATION ANALYSIS *
                    ********************************

-----------------------
MULLIKEN ATOMIC CHARGES
-----------------------
   0 C :   -0.180555
   1 C :   -0.105723
   2 C :   -0.212840
   3 C :    0.166766
   4 C :    0.157731
   5 O :   -0.470016
   6 C :    0.222097
   7 C :   -0.231753
   8 C :   -0.255171
   9 C :    0.174374
  10 C :    0.291871
  11 N :   -0.517558
  12 C :    0.063939
  13 C :   -0.049833
  14 C :   -0.203733
  15 C :    0.705158
  16 O :   -0.613076
  17 N :   -0.222223
  18 C :   -0.260026
  19 C :   -0.247394
  20 H :    0.133194
  21 H :    0.141175
  22 H :    0.143811
  23 H :    0.131590
  24 H :    0.152828
  25 H :    0.141585
  26 H :    0.112699
  27 H :    0.115353
  28 H :    0.114962
  29 H :    0.112627
  30 H :    0.110122
  31 H :    0.124513
  32 H :    0.123798
  33 H :    0.129709
Sum of atomic charges:   -0.0000000

--------------------------------
MULLIKEN REDUCED ORBITAL CHARGES
--------------------------------
  0 C s       :     3.216077  s :     3.216077
      pz      :     0.984754  p :     2.890313
      px      :     0.917264
      py      :     0.988294
      dz2     :     0.016200  d :     0.074166
      dxz     :     0.012585
      dyz     :     0.014380
      dx2y2   :     0.013583
      dxy     :     0.017418

  1 C s       :     3.196881  s :     3.196881
      pz      :     0.942065  p :     2.821621
      px      :     0.937233
      py      :     0.942323
      dz2     :     0.017034  d :     0.087221
      dxz     :     0.019372
      dyz     :     0.009667
      dx2y2   :     0.018277
      dxy     :     0.022870

  2 C s       :     3.231499  s :     3.231499
      pz      :     0.991627  p :     2.896949
      px      :     0.956515
      py      :     0.948806
      dz2     :     0.008645  d :     0.084392
      dxz     :     0.022785
      dyz     :     0.008964
      dx2y2   :     0.020421
      dxy     :     0.023578

  3 C s       :     3.173946  s :     3.173946
      pz      :     0.828346  p :     2.464840
      px      :     0.788177
      py      :     0.848317
      dz2     :     0.035390  d :     0.194449
      dxz     :     0.032105
      dyz     :     0.023659
      dx2y2   :     0.063060
      dxy     :     0.040235

  4 C s       :     3.358464  s :     3.358464
      pz      :     0.887590  p :     2.349505
      px      :     0.616557
      py      :     0.845358
      dz2     :     0.023207  d :     0.134301
      dxz     :     0.031897
      dyz     :     0.016212
      dx2y2   :     0.031979
      dxy     :     0.031005

  5 O s       :     3.831020  s :     3.831020
      pz      :     1.643520  p :     4.595015
      px      :     1.673674
      py      :     1.277821
      dz2     :     0.007617  d :     0.043981
      dxz     :     0.006475
      dyz     :     0.010490
      dx2y2   :     0.010466
      dxy     :     0.008934

  6 C s       :     3.058793  s :     3.058793
      pz      :     0.885950  p :     2.566095
      px      :     0.878556
      py      :     0.801589
      dz2     :     0.024151  d :     0.153016
      dxz     :     0.033848
      dyz     :     0.020612
      dx2y2   :     0.038613
      dxy     :     0.035791

  7 C s       :     3.257736  s :     3.257736
      pz      :     0.945934  p :     2.886101
      px      :     0.978726
      py      :     0.961441
      dz2     :     0.010471  d :     0.087917
      dxz     :     0.021102
      dyz     :     0.010624
      dx2y2   :     0.027375
      dxy     :     0.018344

  8 C s       :     3.281376  s :     3.281376
      pz      :     0.969740  p :     2.885523
      px      :     0.935953
      py      :     0.979829
      dz2     :     0.021948  d :     0.088272
      dxz     :     0.013137
      dyz     :     0.017080
      dx2y2   :     0.021251
      dxy     :     0.014856

  9 C s       :     3.051006  s :     3.051006
      pz      :     0.816476  p :     2.607292
      px      :     0.914608
      py      :     0.876208
      dz2     :     0.036651  d :     0.167329
      dxz     :     0.041285
      dyz     :     0.016124
      dx2y2   :     0.038880
      dxy     :     0.034389

 10 C s       :     3.051156  s :     3.051156
      pz      :     0.832222  p :     2.514230
      px      :     0.855633
      py      :     0.826375
      dz2     :     0.028859  d :     0.142742
      dxz     :     0.026638
      dyz     :     0.021477
      dx2y2   :     0.035059
      dxy     :     0.030709

 11 N s       :     3.655613  s :     3.655613
      pz      :     1.171456  p :     3.785578
      px      :     1.483911
      py      :     1.130211
      dz2     :     0.015584  d :     0.076368
      dxz     :     0.017071
      dyz     :     0.011985
      dx2y2   :     0.013064
      dxy     :     0.018664

 12 C s       :     3.149672  s :     3.149672
      pz      :     0.928087  p :     2.679559
      px      :     0.872066
      py      :     0.879406
      dz2     :     0.015940  d :     0.106830
      dxz     :     0.023333
      dyz     :     0.011950
      dx2y2   :     0.031541
      dxy     :     0.024066

 13 C s       :     3.132815  s :     3.132815
      pz      :     0.953230  p :     2.837893
      px      :     0.925025
      py      :     0.959638
      dz2     :     0.014854  d :     0.079124
      dxz     :     0.019369
      dyz     :     0.010443
      dx2y2   :     0.016135
      dxy     :     0.018323

 14 C s       :     3.240007  s :     3.240007
      pz      :     0.950022  p :     2.879585
      px      :     0.989021
      py      :     0.940542
      dz2     :     0.019306  d :     0.084141
      dxz     :     0.016770
      dyz     :     0.014077
      dx2y2   :     0.018026
      dxy     :     0.015962

 15 C s       :     2.825738  s :     2.825738
      pz      :     0.726436  p :     2.179172
      px      :     0.792891
      py      :     0.659845
      dz2     :     0.069500  d :     0.289932
      dxz     :     0.054084
      dyz     :     0.084037
      dx2y2   :     0.041363
      dxy     :     0.040948

 16 O s       :     3.871411  s :     3.871411
      pz      :     1.450715  p :     4.708376
      px      :     1.533365
      py      :     1.724296
      dz2     :     0.011315  d :     0.033288
      dxz     :     0.009532
      dyz     :     0.007895
      dx2y2   :     0.002141
      dxy     :     0.002406

 17 N s       :     3.428578  s :     3.428578
      pz      :     1.121858  p :     3.703160
      px      :     1.500814
      py      :     1.080488
      dz2     :     0.021346  d :     0.090486
      dxz     :     0.015299
      dyz     :     0.026371
      dx2y2   :     0.013740
      dxy     :     0.013730

 18 C s       :     3.245068  s :     3.245068
      pz      :     0.807857  p :     2.948050
      px      :     1.077839
      py      :     1.062354
      dz2     :     0.015814  d :     0.066908
      dxz     :     0.026379
      dyz     :     0.011231
      dx2y2   :     0.007047
      dxy     :     0.006438

 19 C s       :     3.240796  s :     3.240796
      pz      :     1.098660  p :     2.941086
      px      :     1.086094
      py      :     0.756331
      dz2     :     0.008185  d :     0.065512
      dxz     :     0.005201
      dyz     :     0.014206
      dx2y2   :     0.010619
      dxy     :     0.027301

 20 H s       :     0.844011  s :     0.844011
      pz      :     0.006865  p :     0.022795
      px      :     0.010278
      py      :     0.005651

 21 H s       :     0.835835  s :     0.835835
      pz      :     0.005915  p :     0.022990
      px      :     0.012651
      py      :     0.004424

 22 H s       :     0.831839  s :     0.831839
      pz      :     0.015401  p :     0.024351
      px      :     0.004660
      py      :     0.004290

 23 H s       :     0.845542  s :     0.845542
      pz      :     0.007978  p :     0.022868
      px      :     0.010293
      py      :     0.004597

 24 H s       :     0.822749  s :     0.822749
      pz      :     0.003527  p :     0.024423
      px      :     0.004772
      py      :     0.016123

 25 H s       :     0.835413  s :     0.835413
      pz      :     0.005009  p :     0.023001
      px      :     0.012236
      py      :     0.005756

 26 H s       :     0.861032  s :     0.861032
      pz      :     0.010325  p :     0.026269
      px      :     0.005795
      py      :     0.010148

 27 H s       :     0.858338  s :     0.858338
      pz      :     0.005423  p :     0.026309
      px      :     0.016950
      py      :     0.003936

 28 H s       :     0.858911  s :     0.858911
      pz      :     0.006489  p :     0.026127
      px      :     0.007997
      py      :     0.011640

 29 H s       :     0.861087  s :     0.861087
      pz      :     0.010795  p :     0.026287
      px      :     0.005420
      py      :     0.010071

 30 H s       :     0.863670  s :     0.863670
      pz      :     0.005644  p :     0.026208
      px      :     0.016381
      py      :     0.004183

 31 H s       :     0.850617  s :     0.850617
      pz      :     0.011960  p :     0.024870
      px      :     0.004920
      py      :     0.007991

 32 H s       :     0.849818  s :     0.849818
      pz      :     0.007207  p :     0.026384
      px      :     0.008162
      py      :     0.011015

 33 H s       :     0.844115  s :     0.844115
      pz      :     0.005232  p :     0.026176
      px      :     0.016856
      py      :     0.004087



                     *******************************
                     * LOEWDIN POPULATION ANALYSIS *
                     *******************************

----------------------
LOEWDIN ATOMIC CHARGES
----------------------
   0 C :   -0.105727
   1 C :   -0.125543
   2 C :   -0.098827
   3 C :   -0.127271
   4 C :   -0.032257
   5 O :    0.174845
   6 C :   -0.089514
   7 C :   -0.089389
   8 C :   -0.090499
   9 C :   -0.090547
  10 C :   -0.095450
  11 N :    0.059396
  12 C :   -0.150533
  13 C :   -0.132584
  14 C :   -0.054169
  15 C :   -0.348179
  16 O :   -0.079107
  17 N :    0.077429
  18 C :   -0.224025
  19 C :   -0.218215
  20 H :    0.111266
  21 H :    0.115495
  22 H :    0.118546
  23 H :    0.110664
  24 H :    0.118056
  25 H :    0.115736
  26 H :    0.143609
  27 H :    0.144206
  28 H :    0.142860
  29 H :    0.147033
  30 H :    0.145372
  31 H :    0.134423
  32 H :    0.144832
  33 H :    0.148068

-------------------------------
LOEWDIN REDUCED ORBITAL CHARGES
-------------------------------
  0 C s       :     2.781755  s :     2.781755
      pz      :     0.965383  p :     2.972245
      px      :     0.997017
      py      :     1.009845
      dz2     :     0.058986  d :     0.351727
      dxz     :     0.052525
      dyz     :     0.063592
      dx2y2   :     0.105664
      dxy     :     0.070961

  1 C s       :     2.782375  s :     2.782375
[...]
 51:   1001.09   0.008220   41.54  0.002562  ( 0.030593 -0.036293 -0.017581)
 52:   1018.43   0.024337  122.99  0.007457  (-0.029006  0.078589  0.020970)
 53:   1071.05   0.013456   68.00  0.003921  (-0.020989  0.058735  0.005496)
 54:   1074.15   0.002110   10.66  0.000613  (-0.021348 -0.011540 -0.004901)
 55:   1082.18   0.031563  159.51  0.009102  (-0.002818  0.080785  0.050673)
 56:   1102.56   0.005777   29.19  0.001635  ( 0.040240  0.001982  0.003436)
 57:   1117.65   0.163914  828.35  0.045767  ( 0.098082 -0.172252 -0.080475)
 58:   1122.30   0.003745   18.93  0.001041  ( 0.015167 -0.017337 -0.022599)
 59:   1128.02   0.005849   29.56  0.001618  ( 0.022160 -0.032615 -0.007965)
 60:   1167.16   0.001621    8.19  0.000433  ( 0.009582 -0.017542 -0.005827)
 61:   1170.43   0.001199    6.06  0.000320  (-0.006609 -0.013740  0.009340)
 62:   1195.35   0.021414  108.22  0.005590  ( 0.037285 -0.062379 -0.017582)
 63:   1206.11   0.005515   27.87  0.001427  ( 0.034967  0.014179 -0.001770)
 64:   1249.83   0.022584  114.13  0.005639  (-0.040241  0.061294  0.016200)
 65:   1253.15   0.006289   31.78  0.001566  (-0.022442  0.032576  0.001070)
 66:   1276.96   0.002009   10.15  0.000491  ( 0.012459 -0.003988 -0.017884)
 67:   1279.21   0.002286   11.55  0.000558  (-0.016910 -0.015876 -0.004436)
 68:   1332.49   0.018675   94.38  0.004374  (-0.032757  0.048845  0.030245)
 69:   1369.15   0.009548   48.25  0.002176  (-0.028057 -0.031628 -0.019719)
 70:   1381.84   0.000235    1.19  0.000053  (-0.002813  0.003145 -0.005934)
 71:   1407.08   0.027724  140.10  0.006149  (-0.033172  0.062610  0.033587)
 72:   1411.11   0.014392   72.73  0.003183  ( 0.033675 -0.038453 -0.023877)
 73:   1427.62   0.002537   12.82  0.000555  (-0.013926  0.014874  0.011810)
 74:   1439.15   0.003083   15.58  0.000668  (-0.008216  0.000514  0.024509)
 75:   1447.86   0.000986    4.98  0.000212  (-0.013121  0.002510 -0.005830)
 76:   1457.02   0.005751   29.06  0.001232  (-0.025505  0.021290 -0.011315)
 77:   1463.63   0.007073   35.74  0.001508  (-0.015748 -0.005916  0.035000)
 78:   1474.62   0.000364    1.84  0.000077  (-0.004504 -0.003524  0.006655)
 79:   1483.53   0.006753   34.13  0.001421  (-0.036330 -0.009024  0.004385)
 80:   1491.53   0.003205   16.20  0.000671  ( 0.008215  0.018484 -0.016167)
 81:   1501.00   0.003187   16.11  0.000663  ( 0.022477  0.006259 -0.010873)
 82:   1506.45   0.000780    3.94  0.000162  (-0.003705  0.004042 -0.011466)
 83:   1521.08   0.016779   84.79  0.003442  (-0.022053  0.052031  0.015773)
 84:   1546.89   0.004640   23.45  0.000936  (-0.024621  0.001688  0.018083)
 85:   1547.67   0.003841   19.41  0.000774  ( 0.021508  0.016852  0.005283)
 86:   1566.62   0.003483   17.60  0.000694  ( 0.008314 -0.017230 -0.018105)
 87:   1719.38   0.195884  989.92  0.035553  ( 0.066176 -0.006899 -0.176425)
 88:   3026.99   0.007443   37.61  0.000767  (-0.001245  0.015789 -0.022726)
 89:   3031.67   0.019285   97.46  0.001985  ( 0.003180  0.030289  0.032520)
 90:   3092.53   0.013791   69.70  0.001392  ( 0.037045 -0.004252 -0.001126)
 91:   3094.32   0.000336    1.70  0.000034  (-0.004824 -0.000205  0.003247)
 92:   3148.46   0.004766   24.09  0.000472  (-0.004296  0.013340  0.016614)
 93:   3166.30   0.000948    4.79  0.000093  (-0.000555 -0.003301  0.009070)
 94:   3179.69   0.001421    7.18  0.000139  (-0.001549  0.011672  0.000931)
 95:   3186.48   0.000753    3.81  0.000074  (-0.005081  0.003639  0.005891)
 96:   3188.75   0.000707    3.57  0.000069  ( 0.008061  0.002003 -0.000461)
 97:   3188.92   0.005582   28.21  0.000546  ( 0.007593 -0.014309 -0.016848)
 98:   3197.56   0.000522    2.64  0.000051  (-0.006449 -0.003049 -0.000238)
 99:   3208.29   0.002527   12.77  0.000246  ( 0.003810  0.012802  0.008210)
100:   3209.30   0.002476   12.51  0.000241  (-0.013522  0.003159  0.006921)
101:   3221.38   0.001885    9.53  0.000183  ( 0.009824  0.008712  0.003200)

* The epsilon (eps) is given for a Dirac delta lineshape.
** The dipole moment derivative (T) already includes vibrational overlap.

The first frequency considered to be a vibration is 6
The total number of vibrations considered is 96


--------------------------
THERMOCHEMISTRY AT 298.15K
--------------------------

Temperature         ...   298.15 K
Pressure            ...     1.00 atm
Total Mass          ...   266.30 AMU
Quasi RRHO          ...     True
Cut-Off Frequency   ...     1.00 cm^-1

Throughout the following assumptions are being made:
  (1) The electronic state is orbitally nondegenerate
  (2) There are no thermally accessible electronically excited states
  (3) Hindered rotations indicated by low frequency modes are not
      treated as such but are treated as vibrations and this may
      cause some error
  (4) All equations used are the standard statistical mechanics
      equations for an ideal gas
  (5) All vibrations are strictly harmonic

freq.      14.02  E(vib)   ...       0.57 
freq.      40.92  E(vib)   ...       0.54 
freq.      60.78  E(vib)   ...       0.51 
freq.      85.95  E(vib)   ...       0.48 
freq.      90.13  E(vib)   ...       0.47 
freq.      98.16  E(vib)   ...       0.46 
freq.     119.75  E(vib)   ...       0.44 
freq.     135.75  E(vib)   ...       0.42 
freq.     185.66  E(vib)   ...       0.37 
freq.     194.59  E(vib)   ...       0.36 
freq.     215.64  E(vib)   ...       0.34 
freq.     222.69  E(vib)   ...       0.33 
freq.     251.33  E(vib)   ...       0.30 
freq.     282.61  E(vib)   ...       0.28 
freq.     351.01  E(vib)   ...       0.23 
freq.     366.21  E(vib)   ...       0.22 
freq.     368.92  E(vib)   ...       0.21 
freq.     401.70  E(vib)   ...       0.19 
freq.     447.11  E(vib)   ...       0.17 
freq.     453.88  E(vib)   ...       0.16 
freq.     465.87  E(vib)   ...       0.16 
freq.     495.63  E(vib)   ...       0.14 
freq.     511.10  E(vib)   ...       0.14 
freq.     526.04  E(vib)   ...       0.13 
freq.     537.77  E(vib)   ...       0.12 
freq.     584.88  E(vib)   ...       0.11 
freq.     599.34  E(vib)   ...       0.10 
freq.     632.57  E(vib)   ...       0.09 
freq.     669.08  E(vib)   ...       0.08 
freq.     678.70  E(vib)   ...       0.08 
freq.     693.24  E(vib)   ...       0.07 
freq.     703.68  E(vib)   ...       0.07 
freq.     717.91  E(vib)   ...       0.07 
freq.     754.63  E(vib)   ...       0.06 
freq.     792.89  E(vib)   ...       0.05 
freq.     811.67  E(vib)   ...       0.05 
freq.     821.62  E(vib)   ...       0.05 
freq.     831.79  E(vib)   ...       0.04 
freq.     842.28  E(vib)   ...       0.04 
freq.     849.87  E(vib)   ...       0.04 
freq.     907.22  E(vib)   ...       0.03 
freq.     915.73  E(vib)   ...       0.03 
freq.     925.16  E(vib)   ...       0.03 
freq.     941.34  E(vib)   ...       0.03 
freq.     977.88  E(vib)   ...       0.03 
freq.    1001.09  E(vib)   ...       0.02 
freq.    1018.43  E(vib)   ...       0.02 
freq.    1071.05  E(vib)   ...       0.02 
freq.    1074.15  E(vib)   ...       0.02 
freq.    1082.18  E(vib)   ...       0.02 
freq.    1102.56  E(vib)   ...       0.02 
freq.    1117.65  E(vib)   ...       0.01 
freq.    1122.30  E(vib)   ...       0.01 
freq.    1128.02  E(vib)   ...       0.01 
freq.    1167.16  E(vib)   ...       0.01 
freq.    1170.43  E(vib)   ...       0.01 
freq.    1195.35  E(vib)   ...       0.01 
freq.    1206.11  E(vib)   ...       0.01 
freq.    1249.83  E(vib)   ...       0.01 
freq.    1253.15  E(vib)   ...       0.01 
freq.    1276.96  E(vib)   ...       0.01 
freq.    1279.21  E(vib)   ...       0.01 
freq.    1332.49  E(vib)   ...       0.01 
freq.    1369.15  E(vib)   ...       0.01 
freq.    1381.84  E(vib)   ...       0.01 
freq.    1407.08  E(vib)   ...       0.00 
freq.    1411.11  E(vib)   ...       0.00 
freq.    1427.62  E(vib)   ...       0.00 
freq.    1439.15  E(vib)   ...       0.00 
freq.    1447.86  E(vib)   ...       0.00 
freq.    1457.02  E(vib)   ...       0.00 
freq.    1463.63  E(vib)   ...       0.00 
freq.    1474.62  E(vib)   ...       0.00 
freq.    1483.53  E(vib)   ...       0.00 
freq.    1491.53  E(vib)   ...       0.00 
freq.    1501.00  E(vib)   ...       0.00 
freq.    1506.45  E(vib)   ...       0.00 
freq.    1521.08  E(vib)   ...       0.00 
freq.    1546.89  E(vib)   ...       0.00 
freq.    1547.67  E(vib)   ...       0.00 
freq.    1566.62  E(vib)   ...       0.00 
freq.    1719.38  E(vib)   ...       0.00 
freq.    3026.99  E(vib)   ...       0.00 
freq.    3031.67  E(vib)   ...       0.00 
freq.    3092.53  E(vib)   ...       0.00 
freq.    3094.32  E(vib)   ...       0.00 
freq.    3148.46  E(vib)   ...       0.00 
freq.    3166.30  E(vib)   ...       0.00 
freq.    3179.69  E(vib)   ...       0.00 
freq.    3186.48  E(vib)   ...       0.00 
freq.    3188.75  E(vib)   ...       0.00 
freq.    3188.92  E(vib)   ...       0.00 
freq.    3197.56  E(vib)   ...       0.00 
freq.    3208.29  E(vib)   ...       0.00 
freq.    3209.30  E(vib)   ...       0.00 
freq.    3221.38  E(vib)   ...       0.00 

------------
INNER ENERGY
------------

The inner energy is: U= E(el) + E(ZPE) + E(vib) + E(rot) + E(trans)
    E(el)   - is the total energy from the electronic structure calculation
              = E(kin-el) + E(nuc-el) + E(el-el) + E(nuc-nuc)
    E(ZPE)  - the the zero temperature vibrational energy from the frequency calculation
    E(vib)  - the the finite temperature correction to E(ZPE) due to population
              of excited vibrational states
    E(rot)  - is the rotational thermal energy
    E(trans)- is the translational thermal energy

Summary of contributions to the inner energy U:
Electronic energy                ...   -878.30428387 Eh
Zero point energy                ...      0.26364484 Eh     165.44 kcal/mol
Thermal vibrational correction   ...      0.01461525 Eh       9.17 kcal/mol
Thermal rotational correction    ...      0.00141627 Eh       0.89 kcal/mol
Thermal translational correction ...      0.00141627 Eh       0.89 kcal/mol
-----------------------------------------------------------------------
Total thermal energy                   -878.02319124 Eh


Summary of corrections to the electronic energy:
(perhaps to be used in another calculation)
Total thermal correction                  0.01744779 Eh      10.95 kcal/mol
Non-thermal (ZPE) correction              0.26364484 Eh     165.44 kcal/mol
-----------------------------------------------------------------------
Total correction                          0.28109263 Eh     176.39 kcal/mol


--------
ENTHALPY
--------

The enthalpy is H = U + kB*T
                kB is Boltzmann's constant
Total thermal energy              ...   -878.02319124 Eh 
Thermal Enthalpy correction       ...      0.00094421 Eh       0.59 kcal/mol
-----------------------------------------------------------------------
Total Enthalpy                    ...   -878.02224703 Eh


Note: Only C1 symmetry has been detected, increase convergence thresholds 
      if your molecule has a higher symmetry. Symmetry factor of 1.0 is   
      used for the rotational entropy correction. 
 

Note: Rotational entropy computed according to Herzberg 
Infrared and Raman Spectra, Chapter V,1, Van Nostrand Reinhold, 1945 
Point Group:  C1, Symmetry Number:   1  
Rotational constants in cm-1:     0.015906     0.011658     0.007451 

Vibrational entropy computed according to the QRRHO of S. Grimme
Chem.Eur.J. 2012 18 9955 using a reference frequency of 100.0 cm-1


-------
ENTROPY
-------

The entropy contributions are T*S = T*(S(el)+S(vib)+S(rot)+S(trans))
     S(el)   - electronic entropy
     S(vib)  - vibrational entropy
     S(rot)  - rotational entropy
     S(trans)- translational entropy
The entropies will be listed as multiplied by the temperature to get
units of energy

Electronic entropy                ...      0.00000000 Eh      0.00 kcal/mol
Vibrational entropy               ...      0.02582983 Eh     16.21 kcal/mol
Rotational entropy                ...      0.01588034 Eh      9.97 kcal/mol
Translational entropy             ...      0.02025841 Eh     12.71 kcal/mol
-----------------------------------------------------------------------
Final entropy term                ...      0.06196858 Eh     38.89 kcal/mol

In case the symmetry of your molecule has not been determined correctly
or in case you have a reason to use a different symmetry number we print 
out the resulting rotational entropy values for sn=1,12:

 non-linear molecules -----------------------------------
|  sn= 1 | S(rot)=       0.01588034 Eh      9.97 kcal/mol|
|  sn= 2 | S(rot)=       0.01522589 Eh      9.55 kcal/mol|
|  sn= 3 | S(rot)=       0.01484305 Eh      9.31 kcal/mol|
|  sn= 4 | S(rot)=       0.01457143 Eh      9.14 kcal/mol|
|  sn= 5 | S(rot)=       0.01436074 Eh      9.01 kcal/mol|
|  sn= 6 | S(rot)=       0.01418860 Eh      8.90 kcal/mol|
|  sn= 7 | S(rot)=       0.01404305 Eh      8.81 kcal/mol|
|  sn= 8 | S(rot)=       0.01391697 Eh      8.73 kcal/mol|
|  sn= 9 | S(rot)=       0.01380576 Eh      8.66 kcal/mol|
|  sn=10 | S(rot)=       0.01370628 Eh      8.60 kcal/mol|
|  sn=11 | S(rot)=       0.01361629 Eh      8.54 kcal/mol|
|  sn=12 | S(rot)=       0.01353414 Eh      8.49 kcal/mol|
 linear molecules ---------------------------------------
|  Dinfh | S(rot)=       0.00995169 Eh      6.24 kcal/mol|
|  Cinfv | S(rot)=       0.01060615 Eh      6.66 kcal/mol|
 --------------------------------------------------------


-------------------
GIBBS FREE ENERGY
-------------------

The Gibbs free energy is G = H - T*S

Total enthalpy                    ...   -878.02224703 Eh 
Total entropy correction          ...     -0.06196858 Eh    -38.89 kcal/mol
-----------------------------------------------------------------------
Final Gibbs free energy         ...   -878.08421562 Eh

For completeness - the Gibbs free energy minus the electronic energy
G-E(el)                           ...      0.22006826 Eh    138.09 kcal/mol



--------------------------------
SUGGESTED CITATIONS FOR THIS RUN
--------------------------------

Below you find a list of papers that are relevant to this ORCA run
We neither can nor want to force you to cite these papers, but we appreciate if you do
You receive ORCA, which is the product of decades of hard work by many enthusiastic individuals, for free
The only thing we kindly ask in return is that you cite our papers,
We deeply appreciate it, if you show your appreciation for ORCA by not just citing the generic ORCA reference.

Please note that relegating all ORCA citations to the supporting information does *not* help us.
SI sections are not indexed - citations you put there will not count into any citation statistics
But we need these citations in order to attract the funding resources that allow us to do what we are doing

Therefore, if you are a happy ORCA user, please consider citing a few of the papers listed below in the main body of your paper

In addition to the list printed below, the program has created the file hbq-es.bibtex that contains the list in bibtex format
You can import this file easily into all common literature databanks and citation aid programs


List of essential papers. We consider these as the minimum necessary citations

  1. Neese,F.
     Software update: the ORCA program system, version 5.0
     WIRES Comput. Molec. Sci., 2022 12(1)e1606
     doi.org/10.1002/wcms.1606

List of papers to cite with high priority. The work reported in these papers was absolutely
necessary for this run to complete.
Our perspective: the developers of density functionals and basis sets usually get cited in chemistry papers
Good! But without the algorithms to do something with them, the functionals or basis sets would not do anything.
Hence, in our opinion, the algorithm design and method developments papers are equally worthy of getting cited

  1. Neese,F.; Olbrich,G.
     Efficient use of the resolution of the identity approximation in time-dependent density functional calculations with hybrid density functionals
     Chem. Phys. Lett., 2002 362 170-178
     doi.org/10.1016/s0009-2614(02)01053-9
  2. Neese,F.
     An improvement of the resolution of the identity approximation for the formation of the Coulomb matrix
     J. Comp. Chem., 2003 24(14)1740-1747
     doi.org/10.1002/jcc.10318
  3. Neese,F.; Wennmohs,F.; Hansen,A.; Becker,U.
     Efficient, approximate and parallel Hartree-Fock and hybrid DFT calculations. A 'chain-of-spheres' algorithm for the Hartree-Fock exchange
     Chem. Phys., 2009 356(1-3)98-109
     doi.org/10.1016/j.chemphys.2008.10.036
  4. Petrenko,T.; Kossmann,S.; Neese,F.
     Efficient time-dependent density functional theory approximations for hybrid density functionals: Analytical gradients and parallelization
     J. Chem. Phys., 2011 134 054116
     doi.org/10.1063/1.3533441
  5. Bykov,D.; Petrenko,T.; Izsak,R.; Kossmann,S.; Becker,U.; Valeev,E.; Neese,F.
     Efficient implementation of the analytic second derivatives of Hartree-Fock and hybrid DFT energies: a detailed analysis of different approximations
     Molec. Phys., 2015 113 1961-1977
     doi.org/10.1080/00268976.2015.1025114
  6. Garcia-Rates,M.; Neese,F.
     Effect of the Solute Cavity on the Solvation Energy and its Derivatives within the Framework of the Gaussian Charge Scheme
     J. Comput. Chem., 2020 41 922-939
     doi.org/10.1002/jcc.26139
  7. Helmich-Paris,B.; de Souza,B.; Neese,F.; Izsák,R.
     An improved chain of spheres for exchange algorithm
     J. Chem. Phys., 2021 155 104109
     doi.org/doi: 10.1063/5.0058766.
  8. Neese,F.
     The SHARK Integral Generation and Digestion System
     J. Comp. Chem., 2022  1-16
     doi.org/10.1002/jcc.26942

List of suggested additional citations. These are papers that are important in the 'surrounding' of 
of this run, or papers that preceded the highly important papers. If you like your results we are grateful for a citation.

  1. Izsak,R.; Neese,F.
     An overlap fitted chain of spheres exchange method
     J. Chem. Phys., 2011 135 144105
     doi.org/10.1063/1.3646921
  2. Izsak,R.; Hansen,A.; Neese,F.
     The resolution of identity and chain of spheres approximations for the LPNO-CCSD singles Fock term
     Molec. Phys., 2012 110 2413-2417
     doi.org/10.1080/00268976.2012.687466
  3. Neese,F.
     The ORCA program system
     WIRES Comput. Molec. Sci., 2012 2(1)73-78
     doi.org/10.1002/wcms.81
  4. Izsak,R.; Neese,F.; Klopper,W.
     Robust fitting techniques in the chain of spheres approximation to the Fock exchange: The role of the complementary space
     J. Chem. Phys., 2013 139 
     doi.org/10.1063/1.4819264
  5. Neese,F.
     Software update: the ORCA program system, version 4.0
     WIRES Comput. Molec. Sci., 2018 8(1)1-6
     doi.org/10.1002/wcms.1327
  6. Neese,F.; Wennmohs,F.; Becker,U.; Riplinger,C.
     The ORCA quantum chemistry program package
     J. Chem. Phys., 2020 152 Art. No. L224108
     doi.org/10.1063/5.0004608

List of optional additional citations

  1. Neese,F.
     Approximate second-order SCF convergence for spin unrestricted wavefunctions
     Chem. Phys. Lett., 2000 325(1-3)93-98
     doi.org/10.1016/s0009-2614(00)00662-x

Timings for individual modules:

Sum of individual times          ...   197171.710 sec (=3286.195 min)
Startup calculation              ...     1182.521 sec (=  19.709 min)   0.6 %
SCF iterations                   ...     9207.010 sec (= 153.450 min)   4.7 %
Property integrals               ...      159.244 sec (=   2.654 min)   0.1 %
Property calculations            ...        0.708 sec (=   0.012 min)   0.0 %
CIS module                       ...    27503.762 sec (= 458.396 min)  13.9 %
Geometry relaxation              ...        3.203 sec (=   0.053 min)   0.0 %
Numerical frequency calculation  ...   159115.262 sec (=2651.921 min)  80.7 %
                             ****ORCA TERMINATED NORMALLY****
TOTAL RUN TIME: 2 days 6 hours 34 minutes 42 seconds 364 msec
