
                                 *****************
                                 * O   R   C   A *
                                 *****************

                                            #,                                       
                                            ###                                      
                                            ####                                     
                                            #####                                    
                                            ######                                   
                                           ########,                                 
                                     ,,################,,,,,                         
                               ,,#################################,,                 
                          ,,##########################################,,             
                       ,#########################################, ''#####,          
                    ,#############################################,,   '####,        
                  ,##################################################,,,,####,       
                ,###########''''           ''''###############################       
              ,#####''   ,,,,##########,,,,          '''####'''          '####       
            ,##' ,,,,###########################,,,                        '##       
           ' ,,###''''                  '''############,,,                           
         ,,##''                                '''############,,,,        ,,,,,,###''
      ,#''                                            '''#######################'''  
     '                                                          ''''####''''         
             ,#######,   #######,   ,#######,      ##                                
            ,#'     '#,  ##    ##  ,#'     '#,    #''#        ######   ,####,        
            ##       ##  ##   ,#'  ##            #'  '#       #        #'  '#        
            ##       ##  #######   ##           ,######,      #####,   #    #        
            '#,     ,#'  ##    ##  '#,     ,#' ,#      #,         ##   #,  ,#        
             '#######'   ##     ##  '#######'  #'      '#     #####' # '####'        



                  #######################################################
                  #                        -***-                        #
                  #          Department of theory and spectroscopy      #
                  #    Directorship and core code : Frank Neese         #
                  #        Max Planck Institute fuer Kohlenforschung    #
                  #                Kaiser Wilhelm Platz 1               #
                  #                 D-45470 Muelheim/Ruhr               #
                  #                      Germany                        #
                  #                                                     #
                  #                  All rights reserved                #
                  #                        -***-                        #
                  #######################################################


                         Program Version 5.0.4 -  RELEASE  -


 With contributions from (in alphabetic order):
   Daniel Aravena         : Magnetic Suceptibility
   Michael Atanasov       : Ab Initio Ligand Field Theory (pilot matlab implementation)
   Alexander A. Auer      : GIAO ZORA, VPT2 properties, NMR spectrum
   Ute Becker             : Parallelization
   Giovanni Bistoni       : ED, misc. LED, open-shell LED, HFLD
   Martin Brehm           : Molecular dynamics
   Dmytro Bykov           : SCF Hessian
   Vijay G. Chilkuri      : MRCI spin determinant printing, contributions to CSF-ICE
   Dipayan Datta          : RHF DLPNO-CCSD density
   Achintya Kumar Dutta   : EOM-CC, STEOM-CC
   Dmitry Ganyushin       : Spin-Orbit,Spin-Spin,Magnetic field MRCI
   Miquel Garcia          : C-PCM and meta-GGA Hessian, CC/C-PCM, Gaussian charge scheme
   Yang Guo               : DLPNO-NEVPT2, F12-NEVPT2, CIM, IAO-localization
   Andreas Hansen         : Spin unrestricted coupled pair/coupled cluster methods
   Benjamin Helmich-Paris : MC-RPA, TRAH-SCF, COSX integrals
   Lee Huntington         : MR-EOM, pCC
   Robert Izsak           : Overlap fitted RIJCOSX, COSX-SCS-MP3, EOM
   Marcus Kettner         : VPT2
   Christian Kollmar      : KDIIS, OOCD, Brueckner-CCSD(T), CCSD density, CASPT2, CASPT2-K
   Simone Kossmann        : Meta GGA functionals, TD-DFT gradient, OOMP2, MP2 Hessian
   Martin Krupicka        : Initial AUTO-CI
   Lucas Lang             : DCDCAS
   Marvin Lechner         : AUTO-CI (C++ implementation), FIC-MRCC
   Dagmar Lenk            : GEPOL surface, SMD
   Dimitrios Liakos       : Extrapolation schemes; Compound Job, initial MDCI parallelization
   Dimitrios Manganas     : Further ROCIS development; embedding schemes
   Dimitrios Pantazis     : SARC Basis sets
   Anastasios Papadopoulos: AUTO-CI, single reference methods and gradients
   Taras Petrenko         : DFT Hessian,TD-DFT gradient, ASA, ECA, R-Raman, ABS, FL, XAS/XES, NRVS
   Peter Pinski           : DLPNO-MP2, DLPNO-MP2 Gradient
   Christoph Reimann      : Effective Core Potentials
   Marius Retegan         : Local ZFS, SOC
   Christoph Riplinger    : Optimizer, TS searches, QM/MM, DLPNO-CCSD(T), (RO)-DLPNO pert. Triples
   Tobias Risthaus        : Range-separated hybrids, TD-DFT gradient, RPA, STAB
   Michael Roemelt        : Original ROCIS implementation
   Masaaki Saitow         : Open-shell DLPNO-CCSD energy and density
   Barbara Sandhoefer     : DKH picture change effects
   Avijit Sen             : IP-ROCIS
   Kantharuban Sivalingam : CASSCF convergence, NEVPT2, FIC-MRCI
   Bernardo de Souza      : ESD, SOC TD-DFT
   Georgi Stoychev        : AutoAux, RI-MP2 NMR, DLPNO-MP2 response
   Willem Van den Heuvel  : Paramagnetic NMR
   Boris Wezisla          : Elementary symmetry handling
   Frank Wennmohs         : Technical directorship


 We gratefully acknowledge several colleagues who have allowed us to
 interface, adapt or use parts of their codes:
   Stefan Grimme, W. Hujo, H. Kruse, P. Pracht,  : VdW corrections, initial TS optimization,
                  C. Bannwarth, S. Ehlert          DFT functionals, gCP, sTDA/sTD-DF
   Ed Valeev, F. Pavosevic, A. Kumar             : LibInt (2-el integral package), F12 methods
   Garnet Chan, S. Sharma, J. Yang, R. Olivares  : DMRG
   Ulf Ekstrom                                   : XCFun DFT Library
   Mihaly Kallay                                 : mrcc  (arbitrary order and MRCC methods)
   Jiri Pittner, Ondrej Demel                    : Mk-CCSD
   Frank Weinhold                                : gennbo (NPA and NBO analysis)
   Christopher J. Cramer and Donald G. Truhlar   : smd solvation model
   Lars Goerigk                                  : TD-DFT with DH, B97 family of functionals
   V. Asgeirsson, H. Jonsson                     : NEB implementation
   FAccTs GmbH                                   : IRC, NEB, NEB-TS, DLPNO-Multilevel, CI-OPT
                                                   MM, QMMM, 2- and 3-layer-ONIOM, Crystal-QMMM,
                                                   LR-CPCM, SF, NACMEs, symmetry and pop. for TD-DFT,
                                                   nearIR, NL-DFT gradient (VV10), updates on ESD,
                                                   ML-optimized integration grids
   S Lehtola, MJT Oliveira, MAL Marques          : LibXC Library
   Liviu Ungur et al                             : ANISO software


 Your calculation uses the libint2 library for the computation of 2-el integrals
 For citations please refer to: http://libint.valeyev.net

 Your ORCA version has been built with support for libXC version: 5.1.0
 For citations please refer to: https://tddft.org/programs/libxc/

 This ORCA versions uses:
   CBLAS   interface :  Fast vector & matrix operations
   LAPACKE interface :  Fast linear algebra routines
   SCALAPACK package :  Parallel linear algebra routines
   Shared memory     :  Shared parallel matrices
   BLAS/LAPACK       :  OpenBLAS 0.3.15  USE64BITINT DYNAMIC_ARCH NO_AFFINITY Zen SINGLE_THREADED
        Core in use  :  Zen
   Copyright (c) 2011-2014, The OpenBLAS Project


================================================================================

----- Orbital basis set information -----
Your calculation utilizes the basis: def2-TZVP(-f)
   F. Weigend and R. Ahlrichs, Phys. Chem. Chem. Phys. 7, 3297 (2005).

----- AuxJ basis set information -----
Your calculation utilizes the auxiliary basis: def2/J
   F. Weigend, Phys. Chem. Chem. Phys. 8, 1057 (2006).

----- AuxC basis set information -----
Your calculation utilizes the auxiliary basis: def2-TZVP/C
  H-La, Hf-Rn : A. Hellweg, C. Hattig, S. Hofener and W. Klopper, Theor. Chem. Acc. 117, 587 (2007).
        Ce-Lu : J. Chmela and M. E. Harding, Mol. Phys. (2018).

================================================================================
                                        WARNINGS
                       Please study these warnings very carefully!
================================================================================


WARNING: Geometry Optimization
  ===> : Switching off AutoStart
         For restart on a previous wavefunction, please use MOREAD

INFO   : the flag for use of the SHARK integral package has been found!

================================================================================
                                       INPUT FILE
================================================================================
NAME = HBQ-Keto_GS.inp
|  1> ! B3LYP/G OPT Def2-TZVP(-f) Def2-TZVP/C Def2/J RIJCOSX TightSCF CPCM(Water) AllPop SOSCF
|  2> %maxcore 3000
|  3> 
|  4> * xyz 0 1
|  5>    C       -3.69720       -0.60578        0.13683
|  6>    C       -3.67674       -1.97528        0.09112
|  7>    C       -2.45486       -2.66049        0.04319
|  8>    C       -1.23739       -1.98859        0.03914
|  9>    C       -1.19162       -0.55526        0.08420
| 10>    C       -2.48970        0.17900        0.13719
| 11>    O       -2.53253        1.40218        0.18070
| 12>    C        0.02749        0.08265        0.07706
| 13>    C        1.25971       -0.66230        0.02668
| 14>    C        1.17702       -2.08862       -0.01657
| 15>    C       -0.01664       -2.71554       -0.01059
| 16>    N        0.14882        1.45773        0.11687
| 17>    C        1.33128        2.09795        0.11156
| 18>    C        2.50436        1.41744        0.06554
| 19>    C        2.46659        0.00968        0.02187
| 20>    H       -0.70002        1.97700        0.15198
| 21>    H       -4.62154       -0.06036        0.17499
| 22>    H       -4.59418       -2.53225        0.09234
| 23>    H       -2.45166       -3.73348        0.00832
| 24>    H       -0.06195       -3.78839       -0.04396
| 25>    H        2.09170       -2.64927       -0.05425
| 26>    H        3.37908       -0.55382       -0.01548
| 27>    H        1.28063        3.16808        0.14606
| 28>    H        3.43201        1.95305        0.06249
| 29> *
| 30> 
| 31> 
| 32> 
| 33>                          ****END OF INPUT****
================================================================================

                       *****************************
                       * Geometry Optimization Run *
                       *****************************

Geometry optimization settings:
Update method            Update   .... BFGS
Choice of coordinates    CoordSys .... Z-matrix Internals
Initial Hessian          InHess   .... Almoef's Model

Convergence Tolerances:
Energy Change            TolE     ....  5.0000e-06 Eh
Max. Gradient            TolMAXG  ....  3.0000e-04 Eh/bohr
RMS Gradient             TolRMSG  ....  1.0000e-04 Eh/bohr
Max. Displacement        TolMAXD  ....  4.0000e-03 bohr
RMS Displacement         TolRMSD  ....  2.0000e-03 bohr
Strict Convergence                ....  False
------------------------------------------------------------------------------
                        ORCA OPTIMIZATION COORDINATE SETUP
------------------------------------------------------------------------------

The optimization will be done in new redundant internal coordinates
Making redundant internal coordinates   ...  (new redundants) done
Evaluating the initial hessian          ...  (Almloef) done
Evaluating the coordinates              ...  done
Calculating the B-matrix                .... done
Calculating the G-matrix                .... done
Diagonalizing the G-matrix              .... done
Small eigenvalue found = 2.878e-02
The first mode is                       ....   66
The number of degrees of freedom        ....   66

    -----------------------------------------------------------------
                    Redundant Internal Coordinates


    -----------------------------------------------------------------
         Definition                    Initial Value    Approx d2E/dq
    -----------------------------------------------------------------
      1. B(C   1,C   0)                  1.3704         0.671405   
      2. B(C   2,C   1)                  1.4017         0.598481   
      3. B(C   3,C   2)                  1.3906         0.623478   
      4. B(C   4,C   3)                  1.4348         0.530046   
      5. B(C   5,C   4)                  1.4923         0.429068   
      6. B(C   5,C   0)                  1.4401         0.519733   
      7. B(O   6,C   5)                  1.2247         1.027062   
      8. B(C   7,C   4)                  1.3759         0.657917   
      9. B(C   8,C   7)                  1.4408         0.518463   
     10. B(C   9,C   8)                  1.4294         0.540664   
     11. B(C  10,C   9)                  1.3483         0.728254   
     12. B(C  10,C   3)                  1.4217         0.556164   
     13. B(N  11,C   7)                  1.3810         0.578416   
     14. B(C  12,N  11)                  1.3447         0.661007   
     15. B(C  13,C  12)                  1.3570         0.705438   
     16. B(C  14,C  13)                  1.4089         0.582794   
     17. B(C  14,C   8)                  1.3814         0.644959   
     18. B(H  15,N  11)                  0.9957         0.456060   
     19. B(H  16,C   0)                  1.0739         0.381987   
     20. B(H  17,C   1)                  1.0733         0.382923   
     21. B(H  18,C   2)                  1.0736         0.382516   
     22. B(H  19,C  10)                  1.0743         0.381445   
     23. B(H  20,C   9)                  1.0735         0.382612   
     24. B(H  21,C  14)                  1.0731         0.383151   
     25. B(H  22,C  12)                  1.0719         0.384882   
     26. B(H  23,C  13)                  1.0712         0.385880   
     27. A(C   1,C   0,C   5)          122.1453         0.426592   
     28. A(C   5,C   0,H  16)          116.4174         0.345989   
     29. A(C   1,C   0,H  16)          121.4373         0.361323   
     30. A(C   0,C   1,H  17)          120.3844         0.361474   
     31. A(C   0,C   1,C   2)          120.1765         0.437546   
     32. A(C   2,C   1,H  17)          119.4391         0.354474   
     33. A(C   1,C   2,C   3)          121.8093         0.431752   
     34. A(C   3,C   2,H  18)          118.6998         0.356880   
     35. A(C   1,C   2,H  18)          119.4910         0.354410   
     36. A(C   4,C   3,C  10)          118.9815         0.413947   
     37. A(C   2,C   3,C   4)          120.6995         0.422460   
     38. A(C   2,C   3,C  10)          120.3190         0.426110   
     39. A(C   3,C   4,C   5)          117.7041         0.395415   
     40. A(C   5,C   4,C   7)          122.8728         0.410776   
     41. A(C   3,C   4,C   7)          119.4231         0.426542   
     42. A(C   0,C   5,O   6)          120.9941         0.457628   
     43. A(C   0,C   5,C   4)          117.4652         0.394055   
     44. A(C   4,C   5,O   6)          121.5406         0.441976   
     45. A(C   4,C   7,C   8)          121.2138         0.424859   
     46. A(C   8,C   7,N  11)          116.1485         0.412526   
     47. A(C   4,C   7,N  11)          122.6377         0.430448   
     48. A(C   7,C   8,C   9)          117.8737         0.410264   
     49. A(C   9,C   8,C  14)          122.4026         0.426538   
     50. A(C   7,C   8,C  14)          119.7237         0.423350   
     51. A(C   8,C   9,C  10)          121.0017         0.435946   
     52. A(C  10,C   9,H  20)          120.7741         0.366481   
     53. A(C   8,C   9,H  20)          118.2242         0.348392   
     54. A(C   9,C  10,H  19)          120.1017         0.366290   
     55. A(C   3,C  10,H  19)          118.3921         0.349876   
     56. A(C   3,C  10,C   9)          121.5062         0.438173   
     57. A(C  12,N  11,H  15)          120.1000         0.365881   
     58. A(C   7,N  11,H  15)          116.4489         0.357641   
     59. A(C   7,N  11,C  12)          123.4510         0.427997   
     60. A(N  11,C  12,C  13)          121.4378         0.446519   
     61. A(C  13,C  12,H  22)          122.8621         0.364858   
     62. A(N  11,C  12,H  22)          115.7000         0.358590   
     63. A(C  12,C  13,C  14)          118.6170         0.439356   
     64. A(C  14,C  13,H  23)          121.5153         0.353343   
     65. A(C  12,C  13,H  23)          119.8676         0.365020   
     66. A(C   8,C  14,C  13)          120.6218         0.432320   
     67. A(C  13,C  14,H  21)          120.1955         0.352919   
     68. A(C   8,C  14,H  21)          119.1827         0.359043   
     69. D(H  17,C   1,C   0,H  16)      0.0219         0.031536   
     70. D(H  17,C   1,C   0,C   5)    179.9880         0.031536   
     71. D(C   2,C   1,C   0,H  16)   -179.9371         0.031536   
     72. D(C   2,C   1,C   0,C   5)      0.0290         0.031536   
     73. D(C   3,C   2,C   1,C   0)     -0.0527         0.024685   
     74. D(C   3,C   2,C   1,H  17)    179.9879         0.024685   
     75. D(H  18,C   2,C   1,C   0)    179.9585         0.024685   
     76. D(H  18,C   2,C   1,H  17)     -0.0009         0.024685   
     77. D(C  10,C   3,C   2,H  18)      0.0112         0.026917   
     78. D(C   4,C   3,C   2,H  18)    179.9787         0.026917   
     79. D(C   4,C   3,C   2,C   1)     -0.0102         0.026917   
     80. D(C  10,C   3,C   2,C   1)   -179.9777         0.026917   
     81. D(C   7,C   4,C   3,C   2)   -179.9062         0.019177   
     82. D(C   5,C   4,C   3,C   2)      0.0907         0.019177   
     83. D(C   5,C   4,C   3,C  10)   -179.9413         0.019177   
     84. D(C   7,C   4,C   3,C  10)      0.0618         0.019177   
     85. D(O   6,C   5,C   4,C   7)     -0.1790         0.012580   
     86. D(C   0,C   5,C   4,C   7)    179.8871         0.012580   
     87. D(C   0,C   5,C   4,C   3)     -0.1097         0.012580   
     88. D(O   6,C   5,C   0,H  16)      0.0857         0.018421   
     89. D(O   6,C   5,C   0,C   1)   -179.8820         0.018421   
     90. D(O   6,C   5,C   4,C   3)    179.8243         0.012580   
     91. D(C   4,C   5,C   0,H  16)   -179.9800         0.018421   
     92. D(C   4,C   5,C   0,C   1)      0.0523         0.018421   
     93. D(N  11,C   7,C   4,C   5)     -0.0785         0.030191   
     94. D(N  11,C   7,C   4,C   3)    179.9182         0.030191   
     95. D(C   8,C   7,C   4,C   5)    179.9321         0.030191   
     96. D(C   8,C   7,C   4,C   3)     -0.0712         0.030191   
     97. D(C  14,C   8,C   7,C   4)   -179.9522         0.018330   
     98. D(C   9,C   8,C   7,N  11)   -179.9548         0.018330   
     99. D(C   9,C   8,C   7,C   4)      0.0353         0.018330   
    100. D(C  14,C   8,C   7,N  11)      0.0578         0.018330   
    101. D(H  20,C   9,C   8,C  14)     -0.0153         0.019975   
    102. D(H  20,C   9,C   8,C   7)    179.9975         0.019975   
    103. D(C  10,C   9,C   8,C  14)    179.9984         0.019975   
    104. D(C  10,C   9,C   8,C   7)      0.0113         0.019975   
    105. D(H  19,C  10,C   9,H  20)     -0.0151         0.037614   
    106. D(C   3,C  10,C   9,H  20)    179.9944         0.037614   
    107. D(C   3,C  10,C   9,C   8)     -0.0197         0.037614   
    108. D(H  19,C  10,C   3,C   4)    179.9928         0.021177   
    109. D(H  19,C  10,C   3,C   2)     -0.0391         0.021177   
    110. D(H  19,C  10,C   9,C   8)    179.9708         0.037614   
    111. D(C   9,C  10,C   3,C   4)     -0.0165         0.021177   
    112. D(C   9,C  10,C   3,C   2)    179.9516         0.021177   
    113. D(H  15,N  11,C   7,C   8)   -179.9861         0.026825   
    114. D(H  15,N  11,C   7,C   4)      0.0240         0.026825   
    115. D(C  12,N  11,C   7,C   8)     -0.0587         0.026825   
    116. D(C  12,N  11,C   7,C   4)    179.9514         0.026825   
    117. D(H  22,C  12,N  11,H  15)     -0.0487         0.035764   
    118. D(H  22,C  12,N  11,C   7)   -179.9735         0.035764   
    119. D(C  13,C  12,N  11,H  15)    179.9350         0.035764   
    120. D(C  13,C  12,N  11,C   7)      0.0101         0.035764   
    121. D(H  23,C  13,C  12,H  22)     -0.0125         0.035095   
    122. D(H  23,C  13,C  12,N  11)   -179.9949         0.035095   
    123. D(C  14,C  13,C  12,H  22)   -179.9774         0.035095   
    124. D(C  14,C  13,C  12,N  11)      0.0402         0.035095   
    125. D(C   8,C  14,C  13,H  23)    179.9973         0.023346   
    126. D(C   8,C  14,C  13,C  12)     -0.0384         0.023346   
    127. D(H  21,C  14,C   8,C   9)     -0.0073         0.028932   
    128. D(H  21,C  14,C   8,C   7)    179.9796         0.028932   
    129. D(C  13,C  14,C   8,C   9)   -179.9982         0.028932   
    130. D(H  21,C  14,C  13,C  12)    179.9707         0.023346   
    131. D(C  13,C  14,C   8,C   7)     -0.0114         0.028932   
    132. D(H  21,C  14,C  13,H  23)      0.0064         0.023346   
    -----------------------------------------------------------------

Number of atoms                         .... 24
Number of degrees of freedom            .... 132

         *************************************************************
         *                GEOMETRY OPTIMIZATION CYCLE   1            *
         *************************************************************
---------------------------------
CARTESIAN COORDINATES (ANGSTROEM)
---------------------------------
  C     -3.697200   -0.605780    0.136830
  C     -3.676740   -1.975280    0.091120
  C     -2.454860   -2.660490    0.043190
  C     -1.237390   -1.988590    0.039140
  C     -1.191620   -0.555260    0.084200
  C     -2.489700    0.179000    0.137190
  O     -2.532530    1.402180    0.180700
  C      0.027490    0.082650    0.077060
  C      1.259710   -0.662300    0.026680
  C      1.177020   -2.088620   -0.016570
  C     -0.016640   -2.715540   -0.010590
  N      0.148820    1.457730    0.116870
  C      1.331280    2.097950    0.111560
  C      2.504360    1.417440    0.065540
  C      2.466590    0.009680    0.021870
  H     -0.700020    1.977000    0.151980
  H     -4.621540   -0.060360    0.174990
  H     -4.594180   -2.532250    0.092340
  H     -2.451660   -3.733480    0.008320
  H     -0.061950   -3.788390   -0.043960
  H      2.091700   -2.649270   -0.054250
  H      3.379080   -0.553820   -0.015480
  H      1.280630    3.168080    0.146060
  H      3.432010    1.953050    0.062490

----------------------------
CARTESIAN COORDINATES (A.U.)
----------------------------
  NO LB      ZA    FRAG     MASS         X           Y           Z
   0 C     6.0000    0    12.011   -6.986695   -1.144758    0.258571
   1 C     6.0000    0    12.011   -6.948032   -3.732738    0.172192
   2 C     6.0000    0    12.011   -4.639013   -5.027597    0.081617
   3 C     6.0000    0    12.011   -2.338328   -3.757890    0.073964
   4 C     6.0000    0    12.011   -2.251835   -1.049289    0.159115
   5 C     6.0000    0    12.011   -4.704851    0.338261    0.259252
   6 O     8.0000    0    15.999   -4.785788    2.649736    0.341474
   7 C     6.0000    0    12.011    0.051949    0.156186    0.145622
   8 C     6.0000    0    12.011    2.380507   -1.251566    0.050418
   9 C     6.0000    0    12.011    2.224245   -3.946920   -0.031313
  10 C     6.0000    0    12.011   -0.031445   -5.131627   -0.020012
  11 N     7.0000    0    14.007    0.281229    2.754710    0.220852
  12 C     6.0000    0    12.011    2.515755    3.964551    0.210818
  13 C     6.0000    0    12.011    4.732555    2.678573    0.123853
  14 C     6.0000    0    12.011    4.661180    0.018293    0.041328
  15 H     1.0000    0     1.008   -1.322846    3.735989    0.287201
  16 H     1.0000    0     1.008   -8.733445   -0.114064    0.330683
  17 H     1.0000    0     1.008   -8.681742   -4.785259    0.174497
  18 H     1.0000    0     1.008   -4.632966   -7.055255    0.015723
  19 H     1.0000    0     1.008   -0.117069   -7.159020   -0.083072
  20 H     1.0000    0     1.008    3.952740   -5.006395   -0.102518
  21 H     1.0000    0     1.008    6.385536   -1.046568   -0.029253
  22 H     1.0000    0     1.008    2.420040    5.986804    0.276013
  23 H     1.0000    0     1.008    6.485559    3.690730    0.118089

--------------------------------
INTERNAL COORDINATES (ANGSTROEM)
--------------------------------
 C      0   0   0     0.000000000000     0.00000000     0.00000000
 C      1   0   0     1.370415362472     0.00000000     0.00000000
 C      2   1   0     1.401713509744   120.17652387     0.00000000
 C      3   2   1     1.390575137632   121.80926514   359.94727220
 C      4   3   2     1.434768338583   120.69947264     0.00000000
 C      1   2   3     1.440116671662   122.14529324     0.02898276
 O      6   1   2     1.224702756345   120.99413849   180.11798027
 C      5   4   3     1.375939439002   119.42307868   180.09382916
 C      8   5   4     1.440782695378   121.21379486   359.92879525
 C      9   8   5     1.429369420759   117.87368760     0.03526153
 C     10   9   8     1.348291008054   121.00170678     0.00000000
 N      8   5   4     1.380996311146   122.63769806   179.91815695
 C     12   8   5     1.344664082996   123.45103925   179.95144212
 C     13  12   8     1.356955558189   121.43784542     0.00000000
 C      9   8   5     1.381354259739   119.72370436   180.04779600
 H     12   8   5     0.995692417667   116.44891404     0.02402611
 H      1   2   3     1.073938358380   121.43728998   180.06288391
 H      2   1   3     1.073272203544   120.38441213   179.95899346
 H      3   2   1     1.073561221822   119.49096232   179.95846163
 H     11  10   9     1.074324753275   120.10168232   179.97082985
 H     10   9   8     1.073493226481   118.22417430   179.99754975
 H     15   9   8     1.073110093420   119.18266320   179.97958697
 H     13  12   8     1.071883337589   115.70004460   180.02646077
 H     14  13  12     1.071177808349   119.86762371   180.00509554

---------------------------
INTERNAL COORDINATES (A.U.)
---------------------------
 C      0   0   0     0.000000000000     0.00000000     0.00000000
 C      1   0   0     2.589709724791     0.00000000     0.00000000
 C      2   1   0     2.648854651634   120.17652387     0.00000000
 C      3   2   1     2.627806178764   121.80926514   359.94727220
 C      4   3   2     2.711319225543   120.69947264     0.00000000
 C      1   2   3     2.721426110336   122.14529324     0.02898276
 O      6   1   2     2.314352804951   120.99413849   180.11798027
 C      5   4   3     2.600148716574   119.42307868   180.09382916
 C      8   5   4     2.722684712757   121.21379486   359.92879525
 C      9   8   5     2.701116749436   117.87368760     0.03526153
 C     10   9   8     2.547900754051   121.00170678     0.00000000
 N      8   5   4     2.609704820022   122.63769806   179.91815695
 C     12   8   5     2.541046858983   123.45103925   179.95144212
 C     13  12   8     2.564274380879   121.43784542     0.00000000
 C      9   8   5     2.610381244833   119.72370436   180.04779600
 H     12   8   5     1.881585983013   116.44891404     0.02402611
 H      1   2   3     2.029449382051   121.43728998   180.06288391
 H      2   1   3     2.028190531848   120.38441213   179.95899346
 H      3   2   1     2.028736697242   119.49096232   179.95846163
 H     11  10   9     2.030179562583   120.10168232   179.97082985
 H     10   9   8     2.028608204668   118.22417430   179.99754975
 H     15   9   8     2.027884188111   119.18266320   179.97958697
 H     13  12   8     2.025565955556   115.70004460   180.02646077
 H     14  13  12     2.024232698514   119.86762371   180.00509554

---------------------
BASIS SET INFORMATION
---------------------
There are 4 groups of distinct atoms

 Group   1 Type C   : 11s6p2d contracted to 5s3p2d pattern {62111/411/11}
 Group   2 Type O   : 11s6p2d contracted to 5s3p2d pattern {62111/411/11}
 Group   3 Type N   : 11s6p2d contracted to 5s3p2d pattern {62111/411/11}
 Group   4 Type H   : 5s1p contracted to 3s1p pattern {311/1}

Atom   0C    basis set group =>   1
Atom   1C    basis set group =>   1
Atom   2C    basis set group =>   1
Atom   3C    basis set group =>   1
Atom   4C    basis set group =>   1
Atom   5C    basis set group =>   1
Atom   6O    basis set group =>   2
Atom   7C    basis set group =>   1
Atom   8C    basis set group =>   1
Atom   9C    basis set group =>   1
Atom  10C    basis set group =>   1
Atom  11N    basis set group =>   3
Atom  12C    basis set group =>   1
Atom  13C    basis set group =>   1
Atom  14C    basis set group =>   1
Atom  15H    basis set group =>   4
Atom  16H    basis set group =>   4
Atom  17H    basis set group =>   4
Atom  18H    basis set group =>   4
Atom  19H    basis set group =>   4
Atom  20H    basis set group =>   4
Atom  21H    basis set group =>   4
Atom  22H    basis set group =>   4
Atom  23H    basis set group =>   4
---------------------------------
AUXILIARY/J BASIS SET INFORMATION
---------------------------------
There are 4 groups of distinct atoms

 Group   1 Type C   : 12s5p4d2f1g contracted to 6s4p3d1f1g pattern {711111/2111/211/2/1}
 Group   2 Type O   : 12s5p4d2f1g contracted to 6s4p3d1f1g pattern {711111/2111/211/2/1}
 Group   3 Type N   : 12s5p4d2f1g contracted to 6s4p3d1f1g pattern {711111/2111/211/2/1}
 Group   4 Type H   : 5s2p1d contracted to 3s1p1d pattern {311/2/1}

Atom   0C    basis set group =>   1
Atom   1C    basis set group =>   1
Atom   2C    basis set group =>   1
Atom   3C    basis set group =>   1
Atom   4C    basis set group =>   1
Atom   5C    basis set group =>   1
Atom   6O    basis set group =>   2
Atom   7C    basis set group =>   1
Atom   8C    basis set group =>   1
Atom   9C    basis set group =>   1
Atom  10C    basis set group =>   1
Atom  11N    basis set group =>   3
Atom  12C    basis set group =>   1
Atom  13C    basis set group =>   1
Atom  14C    basis set group =>   1
Atom  15H    basis set group =>   4
Atom  16H    basis set group =>   4
Atom  17H    basis set group =>   4
Atom  18H    basis set group =>   4
Atom  19H    basis set group =>   4
Atom  20H    basis set group =>   4
Atom  21H    basis set group =>   4
Atom  22H    basis set group =>   4
Atom  23H    basis set group =>   4
---------------------------------
AUXILIARY/C BASIS SET INFORMATION
---------------------------------
There are 4 groups of distinct atoms

 Group   1 Type C   : 8s6p5d3f1g contracted to 8s6p4d3f1g pattern {11111111/111111/2111/111/1}
 Group   2 Type O   : 8s6p5d3f1g contracted to 8s6p4d3f1g pattern {11111111/111111/2111/111/1}
 Group   3 Type N   : 8s6p5d3f1g contracted to 8s6p4d3f1g pattern {11111111/111111/2111/111/1}
 Group   4 Type H   : 4s3p2d contracted to 4s2p1d pattern {1111/21/2}

Atom   0C    basis set group =>   1
Atom   1C    basis set group =>   1
Atom   2C    basis set group =>   1
Atom   3C    basis set group =>   1
Atom   4C    basis set group =>   1
Atom   5C    basis set group =>   1
Atom   6O    basis set group =>   2
Atom   7C    basis set group =>   1
Atom   8C    basis set group =>   1
Atom   9C    basis set group =>   1
Atom  10C    basis set group =>   1
Atom  11N    basis set group =>   3
Atom  12C    basis set group =>   1
Atom  13C    basis set group =>   1
Atom  14C    basis set group =>   1
Atom  15H    basis set group =>   4
Atom  16H    basis set group =>   4
Atom  17H    basis set group =>   4
Atom  18H    basis set group =>   4
Atom  19H    basis set group =>   4
Atom  20H    basis set group =>   4
Atom  21H    basis set group =>   4
Atom  22H    basis set group =>   4
Atom  23H    basis set group =>   4
------------------------------------------------------------------------------
                           ORCA GTO INTEGRAL CALCULATION
                           -- RI-GTO INTEGRALS CHOSEN --
------------------------------------------------------------------------------
------------------------------------------------------------------------------
                   ___                                                        
                  /   \      - P O W E R E D   B Y -                         
                 /     \                                                     
                 |  |  |   _    _      __       _____    __    __             
                 |  |  |  | |  | |    /  \     |  _  \  |  |  /  |          
                  \  \/   | |  | |   /    \    | | | |  |  | /  /          
                 / \  \   | |__| |  /  /\  \   | |_| |  |  |/  /          
                |  |  |   |  __  | /  /__\  \  |    /   |      \           
                |  |  |   | |  | | |   __   |  |    \   |  |\   \          
                \     /   | |  | | |  |  |  |  | |\  \  |  | \   \       
                 \___/    |_|  |_| |__|  |__|  |_| \__\ |__|  \__/        
                                                                              
                      - O R C A' S   B I G   F R I E N D -                    
                                      &                                       
                       - I N T E G R A L  F E E D E R -                       
                                                                              
 v1 FN, 2020, v2 2021                                                         
------------------------------------------------------------------------------


Reading SHARK input file HBQ-Keto_GS.SHARKINP.tmp ... ok
----------------------
SHARK INTEGRAL PACKAGE
----------------------

Number of atoms                             ...     24
Number of basis functions                   ...    414
Number of shells                            ...    186
Maximum angular momentum                    ...      2
Integral batch strategy                     ... SHARK/LIBINT Hybrid
RI-J (if used) integral strategy            ... SPLIT-RIJ (Revised 2003 algorithm where possible)
Printlevel                                  ...      1
Contraction scheme used                     ... SEGMENTED contraction
Coulomb Range Separation                    ... NOT USED
Exchange Range Separation                   ... NOT USED
Finite Nucleus Model                        ... NOT USED
Auxiliary Coulomb fitting basis             ... AVAILABLE
   # of basis functions in Aux-J            ...    834
   # of shells in Aux-J                     ...    270
   Maximum angular momentum in Aux-J        ...      4
Auxiliary J/K fitting basis                 ... NOT available
Auxiliary Correlation fitting basis         ... AVAILABLE
   # of basis functions in Aux-C            ...   1275
   # of shells in Aux-C                     ...    393
   Maximum angular momentum in Aux-C        ...      4
Auxiliary 'external' fitting basis          ... NOT available
Integral threshold                          ...     2.500000e-11
Primitive cut-off                           ...     2.500000e-12
Primitive pair pre-selection threshold      ...     2.500000e-12

Calculating pre-screening integrals         ... done (  0.1 sec) Dimension = 186
Organizing shell pair data                  ... done (  0.2 sec)
Shell pair information
Total number of shell pairs                 ...     17391
Shell pairs after pre-screening             ...     14531
Total number of primitive shell pairs       ...     57987
Primitive shell pairs kept                  ...     33518
          la=0 lb=0:   4117 shell pairs
          la=1 lb=0:   4683 shell pairs
          la=1 lb=1:   1340 shell pairs
          la=2 lb=0:   2539 shell pairs
          la=2 lb=1:   1443 shell pairs
          la=2 lb=2:    409 shell pairs

Calculating one electron integrals          ... done (  0.1 sec)
Calculating RI/J V-Matrix + Cholesky decomp.... done (  0.2 sec)
Calculating RI/C V-Matrix + Cholesky decomp.... done (  0.3 sec)
Calculating Nuclear repulsion               ... done (  0.0 sec) ENN=    906.267865359771 Eh

SHARK setup successfully completed in   1.2 seconds

Maximum memory used throughout the entire GTOINT-calculation: 123.1 MB
-------------------------------------------------------------------------------
                                 ORCA SCF
-------------------------------------------------------------------------------

------------
SCF SETTINGS
------------
Hamiltonian:
 Density Functional     Method          .... DFT(GTOs)
 Exchange Functional    Exchange        .... B88
   X-Alpha parameter    XAlpha          ....  0.666667
   Becke's b parameter  XBeta           ....  0.004200
 Correlation Functional Correlation     .... LYP
 LDA part of GGA corr.  LDAOpt          .... VWN-3
 Gradients option       PostSCFGGA      .... off
 Hybrid DFT is turned on
   Fraction HF Exchange ScalHFX         ....  0.200000
   Scaling of DF-GGA-X  ScalDFX         ....  0.720000
   Scaling of DF-GGA-C  ScalDFC         ....  0.810000
   Scaling of DF-LDA-C  ScalLDAC        ....  1.000000
   Perturbative correction              ....  0.000000
   Density functional embedding theory  .... OFF
   NL short-range parameter             ....  4.800000
 RI-approximation to the Coulomb term is turned on
   Number of AuxJ basis functions       .... 834
   RIJ-COSX (HFX calculated with COS-X)).... on


General Settings:
 Integral files         IntName         .... HBQ-Keto_GS
 Hartree-Fock type      HFTyp           .... RHF
 Total Charge           Charge          ....    0
 Multiplicity           Mult            ....    1
 Number of Electrons    NEL             ....  102
 Basis Dimension        Dim             ....  414
 Nuclear Repulsion      ENuc            ....    906.2678653598 Eh

Convergence Acceleration:
 DIIS                   CNVDIIS         .... on
   Start iteration      DIISMaxIt       ....    12
   Startup error        DIISStart       ....  0.200000
   # of expansion vecs  DIISMaxEq       ....     5
   Bias factor          DIISBfac        ....   1.050
   Max. coefficient     DIISMaxC        ....  10.000
 Trust-Rad. Augm. Hess. CNVTRAH         .... auto
   Auto Start mean grad. ratio tolernc. ....  1.125000
   Auto Start start iteration           ....    20
   Auto Start num. interpolation iter.  ....    10
   Max. Number of Micro iterations      ....    16
   Max. Number of Macro iterations      .... Maxiter - #DIIS iter
   Number of Davidson start vectors     ....     2
   Converg. threshold I  (grad. norm)   ....   1.000e-05
   Converg. threshold II (energy diff.) ....   1.000e-08
   Grad. Scal. Fac. for Micro threshold ....   0.100
   Minimum threshold for Micro iter.    ....   0.010
   NR start threshold (gradient norm)   ....   0.001
   Initial trust radius                 ....   0.400
   Minimum AH scaling param. (alpha)    ....   1.000
   Maximum AH scaling param. (alpha)    .... 1000.000
   Orbital update algorithm             .... Taylor
   White noise on init. David. guess    .... on
   Maximum white noise                  ....   0.010
   Quad. conv. algorithm                .... NR
 SOSCF                  CNVSOSCF        .... on
   Start iteration      SOSCFMaxIt      ....   150
   Startup grad/error   SOSCFStart      ....  0.003300
 Level Shifting         CNVShift        .... on
   Level shift para.    LevelShift      ....    0.2500
   Turn off err/grad.   ShiftErr        ....    0.0010
 Zerner damping         CNVZerner       .... off
 Static damping         CNVDamp         .... on
   Fraction old density DampFac         ....    0.7000
   Max. Damping (<1)    DampMax         ....    0.9800
   Min. Damping (>=0)   DampMin         ....    0.0000
   Turn off err/grad.   DampErr         ....    0.1000
 Fernandez-Rico         CNVRico         .... off

SCF Procedure:
 Maximum # iterations   MaxIter         ....   125
 SCF integral mode      SCFMode         .... Direct
   Integral package                     .... SHARK and LIBINT hybrid scheme
 Reset frequency        DirectResetFreq ....    20
 Integral Threshold     Thresh          ....  2.500e-11 Eh
 Primitive CutOff       TCut            ....  2.500e-12 Eh

Convergence Tolerance:
 Convergence Check Mode ConvCheckMode   .... Total+1el-Energy
 Convergence forced     ConvForced      .... 0
 Energy Change          TolE            ....  1.000e-08 Eh
 1-El. energy change                    ....  1.000e-05 Eh
 Orbital Gradient       TolG            ....  1.000e-05
 Orbital Rotation angle TolX            ....  1.000e-05
 DIIS Error             TolErr          ....  5.000e-07


Diagonalization of the overlap matrix:
Smallest eigenvalue                        ... 4.342e-06
Time for diagonalization                   ...    0.021 sec
Threshold for overlap eigenvalues          ... 1.000e-08
Number of eigenvalues below threshold      ... 0
Time for construction of square roots      ...    0.038 sec
Total time needed                          ...    0.060 sec

Time for model grid setup =    0.517 sec

------------------------------
INITIAL GUESS: MODEL POTENTIAL
------------------------------
Loading Hartree-Fock densities                     ... done
Calculating cut-offs                               ... done
Initializing the effective Hamiltonian             ... done
Setting up the integral package (SHARK)            ... done
Starting the Coulomb interaction                   ... done (   0.9 sec)
Reading the grid                                   ... done
Mapping shells                                     ... done
Starting the XC term evaluation                    ... done (   0.8 sec)
  promolecular density results
     # of electrons  =    101.987868262
     EX              =    -84.384452070
     EC              =     -3.484586186
     EX+EC           =    -87.869038256
Transforming the Hamiltonian                       ... done (   0.0 sec)
Diagonalizing the Hamiltonian                      ... done (   0.0 sec)
Back transforming the eigenvectors                 ... done (   0.0 sec)
Now organizing SCF variables                       ... done
                      ------------------
                      INITIAL GUESS DONE (   2.2 sec)
                      ------------------
-------------------
DFT GRID GENERATION
-------------------

General Integration Accuracy     IntAcc      ... 4.388
Radial Grid Type                 RadialGrid  ... OptM3 with GC (2021)
Angular Grid (max. ang.)         AngularGrid ... 4 (Lebedev-302)
Angular grid pruning method      GridPruning ... 4 (adaptive)
Weight generation scheme         WeightScheme... Becke
Basis function cutoff            BFCut       ... 1.0000e-11
Integration weight cutoff        WCut        ... 1.0000e-14
Angular grids for H and He will be reduced by one unit
Partially contracted basis set               ... off
Rotationally invariant grid construction     ... off

Total number of grid points                  ...   118399
Total number of batches                      ...     1861
Average number of points per batch           ...       63
Average number of grid points per atom       ...     4933
Time for grid setup =    1.816 sec

--------------------
COSX GRID GENERATION
--------------------

GRIDX 1
-------
General Integration Accuracy     IntAcc      ... 3.816
Radial Grid Type                 RadialGrid  ... OptM3 with GC (2021)
Angular Grid (max. ang.)         AngularGrid ... 1 (Lebedev-50)
Angular grid pruning method      GridPruning ... 4 (adaptive)
Weight generation scheme         WeightScheme... Becke
Basis function cutoff            BFCut       ... 1.0000e-11
Integration weight cutoff        WCut        ... 1.0000e-14
Angular grids for H and He will be reduced by one unit
Partially contracted basis set               ... on
Rotationally invariant grid construction     ... off

Total number of grid points                  ...    15096
Total number of batches                      ...      244
Average number of points per batch           ...       61
Average number of grid points per atom       ...      629
UseSFitting                                  ... on

GRIDX 2
-------
General Integration Accuracy     IntAcc      ... 4.020
Radial Grid Type                 RadialGrid  ... OptM3 with GC (2021)
Angular Grid (max. ang.)         AngularGrid ... 2 (Lebedev-110)
Angular grid pruning method      GridPruning ... 4 (adaptive)
Weight generation scheme         WeightScheme... Becke
Basis function cutoff            BFCut       ... 1.0000e-11
Integration weight cutoff        WCut        ... 1.0000e-14
Angular grids for H and He will be reduced by one unit
Partially contracted basis set               ... on
Rotationally invariant grid construction     ... off

Total number of grid points                  ...    33209
Total number of batches                      ...      532
Average number of points per batch           ...       62
Average number of grid points per atom       ...     1384
UseSFitting                                  ... on

GRIDX 3
-------
General Integration Accuracy     IntAcc      ... 4.338
Radial Grid Type                 RadialGrid  ... OptM3 with GC (2021)
Angular Grid (max. ang.)         AngularGrid ... 3 (Lebedev-194)
Angular grid pruning method      GridPruning ... 4 (adaptive)
Weight generation scheme         WeightScheme... Becke
Basis function cutoff            BFCut       ... 1.0000e-11
Integration weight cutoff        WCut        ... 1.0000e-14
Angular grids for H and He will be reduced by one unit
Partially contracted basis set               ... on
Rotationally invariant grid construction     ... off

Total number of grid points                  ...    73093
Total number of batches                      ...     1155
Average number of points per batch           ...       63
Average number of grid points per atom       ...     3046
UseSFitting                                  ... on

Time for X-Grid setup             =    3.066 sec


--------------------
CPCM SOLVATION MODEL
--------------------
CPCM parameters:
  Epsilon                                         ...      80.4000
  Refrac                                          ...       1.3300
  Rsolv                                           ...       1.3000
  Surface type                                    ... GAUSSIAN VDW
  Epsilon function type                           ...         CPCM
Radii:
 Radius for C  used is    3.8550 Bohr (=   2.0400 Ang.)
 Radius for O  used is    3.4469 Bohr (=   1.8240 Ang.)
 Radius for N  used is    3.5149 Bohr (=   1.8600 Ang.)
 Radius for H  used is    2.4944 Bohr (=   1.3200 Ang.)
Calculating surface                               ...        done! (  0.0s)
GEPOL surface points                              ...         1264
GEPOL Volume                                      ...    1543.1105
GEPOL Surface-area                                ...     786.2683
Calculating surface distance matrix               ...        done! (  0.0s)
Performing Cholesky decomposition & store         ...        done! (  0.2s)
Overall time for CPCM initialization              ...                 0.2s
--------------
SCF ITERATIONS
--------------
ITER       Energy         Delta-E        Max-DP      RMS-DP      [F,P]     Damp
               ***  Starting incremental Fock matrix formation  ***
  0   -630.6659647726   0.000000000000 0.74464712  0.00681272  0.3232695 0.7000
  1   -630.8254162194  -0.159451446822 0.75662125  0.00673657  0.1312733 0.7000
                               ***Turning on DIIS***
  2   -630.8933488538  -0.067932634381 0.79468494  0.00753614  0.0413531 0.0000
  3   -630.9975643199  -0.104215466077 0.80115599  0.00700873  0.0702930 0.0000
  4   -631.0199663244  -0.022402004492 0.17051924  0.00154064  0.0197833 0.0000
  5   -631.0213410079  -0.001374683543 0.10752003  0.00093455  0.0115749 0.0000
                      *** Initiating the SOSCF procedure ***
                           *** Shutting down DIIS ***
                      *** Re-Reading the Fockian *** 
                      *** Removing any level shift *** 
ITER      Energy       Delta-E        Grad      Rot      Max-DP    RMS-DP
  6   -631.02152228  -0.0001812721  0.000335  0.000335  0.053839  0.000452
               *** Restarting incremental Fock matrix formation ***
  7   -631.02148252   0.0000397612  0.000302  0.001973  0.009634  0.000097
  8   -631.02147278   0.0000097350  0.000534  0.000839  0.002264  0.000029
  9   -631.02148786  -0.0000150724  0.000035  0.000172  0.000674  0.000006
 10   -631.02148778   0.0000000756  0.000048  0.000074  0.000599  0.000007
 11   -631.02148796  -0.0000001745  0.000003  0.000025  0.001415  0.000012
 12   -631.02148797  -0.0000000119  0.000005  0.000008  0.000515  0.000004
                  ***Gradient check signals convergence***
              ***Rediagonalizing the Fockian in SOSCF/NRSCF***

               *****************************************************
               *                     SUCCESS                       *
               *           SCF CONVERGED AFTER  13 CYCLES          *
               *****************************************************

Old exchange energy                            =    -17.123018838 Eh
New exchange energy                            =    -17.122987002 Eh
Exchange energy change after final integration =      0.000031836 Eh
Total energy after final integration           =   -631.021456133 Eh
Final COS-X integration done in                =    50.109 sec

----------------
TOTAL SCF ENERGY
----------------

Total Energy       :         -631.02145613 Eh          -17170.96678 eV

Components:
Nuclear Repulsion  :          906.26786536 Eh           24660.80235 eV
Electronic Energy  :        -1537.28932149 Eh          -41831.76912 eV
One Electron Energy:        -2652.65800704 Eh          -72182.49406 eV
Two Electron Energy:         1115.36868554 Eh           30350.72493 eV
Max COSX asymmetry :            0.00000301 Eh               0.00008 eV
CPCM Dielectric    :           -0.02490663 Eh              -0.67774 eV

Virial components:
Potential Energy   :        -1259.35169422 Eh          -34268.70179 eV
Kinetic Energy     :          628.33023809 Eh           17097.73501 eV
Virial Ratio       :            2.00428313


DFT components:
N(Alpha)           :       51.000029930692 electrons
N(Beta)            :       51.000029930692 electrons
N(Total)           :      102.000059861384 electrons
E(X)               :      -68.072507194048 Eh       
E(C)               :       -4.486396251913 Eh       
E(XC)              :      -72.558903445961 Eh       
DFET-embed. en.    :        0.000000000000 Eh       
CPCM Solvation Model Properties:
Surface-charge          :           -0.02832865
Charge-correction       :           -0.00019002 Eh              -0.00517 eV
Free-energy (cav+disp)  :  This term is not implemented in the current solvation scheme

---------------
SCF CONVERGENCE
---------------

  Last Energy change         ...   -2.4461e-09  Tolerance :   1.0000e-08
  Last MAX-Density change    ...    1.4433e-15  Tolerance :   1.0000e-07
  Last RMS-Density change    ...    1.9483e-17  Tolerance :   5.0000e-09
  Last Orbital Gradient      ...    7.7887e-07  Tolerance :   1.0000e-05
  Last Orbital Rotation      ...    2.2784e-06  Tolerance :   1.0000e-05

             **** THE GBW FILE WAS UPDATED (HBQ-Keto_GS.gbw) ****
             **** DENSITY HBQ-Keto_GS.scfp WAS UPDATED ****
             **** ENERGY FILE WAS UPDATED (HBQ-Keto_GS.en.tmp) ****
             **** THE GBW FILE WAS UPDATED (HBQ-Keto_GS.gbw) ****
             **** DENSITY HBQ-Keto_GS.scfp WAS UPDATED ****
----------------
ORBITAL ENERGIES
----------------

  NO   OCC          E(Eh)            E(eV) 
   0   2.0000     -19.080044      -519.1944 
   1   2.0000     -14.393922      -391.6785 
   2   2.0000     -10.248888      -278.8864 
   3   2.0000     -10.239274      -278.6248 
   4   2.0000     -10.232275      -278.4344 
   5   2.0000     -10.207958      -277.7727 
   6   2.0000     -10.207155      -277.7508 
   7   2.0000     -10.192764      -277.3592 
   8   2.0000     -10.189332      -277.2658 
   9   2.0000     -10.182979      -277.0930 
  10   2.0000     -10.181871      -277.0628 
  11   2.0000     -10.179487      -276.9979 
  12   2.0000     -10.174492      -276.8620 
  13   2.0000     -10.158019      -276.4137 
  14   2.0000     -10.154637      -276.3217 
  15   2.0000      -1.026424       -27.9304 
  16   2.0000      -1.004327       -27.3291 
  17   2.0000      -0.880326       -23.9549 
  18   2.0000      -0.842991       -22.9390 
  19   2.0000      -0.818449       -22.2711 
  20   2.0000      -0.783718       -21.3261 
  21   2.0000      -0.753787       -20.5116 
  22   2.0000      -0.714805       -19.4508 
  23   2.0000      -0.671671       -18.2771 
  24   2.0000      -0.663372       -18.0513 
  25   2.0000      -0.640457       -17.4277 
  26   2.0000      -0.600350       -16.3364 
  27   2.0000      -0.571120       -15.5410 
  28   2.0000      -0.546205       -14.8630 
  29   2.0000      -0.526954       -14.3391 
  30   2.0000      -0.517404       -14.0793 
  31   2.0000      -0.488683       -13.2977 
  32   2.0000      -0.486556       -13.2399 
  33   2.0000      -0.466920       -12.7055 
  34   2.0000      -0.456586       -12.4243 
  35   2.0000      -0.448519       -12.2048 
  36   2.0000      -0.435730       -11.8568 
  37   2.0000      -0.424959       -11.5637 
  38   2.0000      -0.405951       -11.0465 
  39   2.0000      -0.402937       -10.9645 
  40   2.0000      -0.397873       -10.8267 
  41   2.0000      -0.380339       -10.3495 
  42   2.0000      -0.370201       -10.0737 
  43   2.0000      -0.361605        -9.8398 
  44   2.0000      -0.352895        -9.6028 
  45   2.0000      -0.332766        -9.0550 
  46   2.0000      -0.317025        -8.6267 
  47   2.0000      -0.274778        -7.4771 
  48   2.0000      -0.250640        -6.8202 
  49   2.0000      -0.245189        -6.6719 
  50   2.0000      -0.189188        -5.1481 
  51   0.0000      -0.084764        -2.3065 
  52   0.0000      -0.048385        -1.3166 
  53   0.0000      -0.013921        -0.3788 
  54   0.0000       0.025320         0.6890 
  55   0.0000       0.053676         1.4606 
  56   0.0000       0.057218         1.5570 
  57   0.0000       0.062945         1.7128 
  58   0.0000       0.072530         1.9736 
  59   0.0000       0.080139         2.1807 
  60   0.0000       0.089762         2.4425 
  61   0.0000       0.098660         2.6847 
  62   0.0000       0.104803         2.8518 
  63   0.0000       0.110218         2.9992 
  64   0.0000       0.112731         3.0676 
  65   0.0000       0.123656         3.3648 
  66   0.0000       0.135530         3.6879 
  67   0.0000       0.148753         4.0478 
  68   0.0000       0.160309         4.3622 
  69   0.0000       0.175664         4.7801 
  70   0.0000       0.176343         4.7985 
  71   0.0000       0.179076         4.8729 
  72   0.0000       0.180110         4.9010 
  73   0.0000       0.197511         5.3746 
  74   0.0000       0.207615         5.6495 
  75   0.0000       0.212520         5.7830 
  76   0.0000       0.214167         5.8278 
  77   0.0000       0.217686         5.9235 
  78   0.0000       0.224224         6.1014 
  79   0.0000       0.224373         6.1055 
  80   0.0000       0.240175         6.5355 
  81   0.0000       0.241820         6.5802 
  82   0.0000       0.256929         6.9914 
  83   0.0000       0.259799         7.0695 
  84   0.0000       0.260805         7.0969 
  85   0.0000       0.271625         7.3913 
  86   0.0000       0.275736         7.5032 
  87   0.0000       0.283650         7.7185 
  88   0.0000       0.286251         7.7893 
  89   0.0000       0.297108         8.0847 
  90   0.0000       0.300342         8.1727 
  91   0.0000       0.305364         8.3094 
  92   0.0000       0.313713         8.5366 
  93   0.0000       0.318016         8.6537 
  94   0.0000       0.325787         8.8651 
  95   0.0000       0.338135         9.2011 
  96   0.0000       0.344582         9.3765 
  97   0.0000       0.346158         9.4194 
  98   0.0000       0.351309         9.5596 
  99   0.0000       0.355440         9.6720 
 100   0.0000       0.368567        10.0292 
 101   0.0000       0.383984        10.4487 
 102   0.0000       0.389064        10.5870 
 103   0.0000       0.398830        10.8527 
 104   0.0000       0.401485        10.9249 
 105   0.0000       0.403348        10.9756 
 106   0.0000       0.411084        11.1862 
 107   0.0000       0.419347        11.4110 
 108   0.0000       0.428173        11.6512 
 109   0.0000       0.431546        11.7430 
 110   0.0000       0.439145        11.9497 
 111   0.0000       0.445615        12.1258 
 112   0.0000       0.453970        12.3531 
 113   0.0000       0.456931        12.4337 
 114   0.0000       0.466728        12.7003 
 115   0.0000       0.471225        12.8227 
 116   0.0000       0.471773        12.8376 
 117   0.0000       0.483853        13.1663 
 118   0.0000       0.490134        13.3372 
 119   0.0000       0.499981        13.6052 
 120   0.0000       0.503542        13.7021 
 121   0.0000       0.514486        13.9999 
 122   0.0000       0.520342        14.1592 
 123   0.0000       0.526851        14.3364 
 124   0.0000       0.529379        14.4051 
 125   0.0000       0.546701        14.8765 
 126   0.0000       0.550044        14.9675 
 127   0.0000       0.565541        15.3891 
 128   0.0000       0.588750        16.0207 
 129   0.0000       0.597165        16.2497 
 130   0.0000       0.602492        16.3946 
 131   0.0000       0.604751        16.4561 
 132   0.0000       0.611560        16.6414 
 133   0.0000       0.614597        16.7240 
 134   0.0000       0.629916        17.1409 
 135   0.0000       0.650864        17.7109 
 136   0.0000       0.656924        17.8758 
 137   0.0000       0.662743        18.0342 
 138   0.0000       0.679553        18.4916 
 139   0.0000       0.683366        18.5953 
 140   0.0000       0.689392        18.7593 
 141   0.0000       0.691763        18.8238 
 142   0.0000       0.693566        18.8729 
 143   0.0000       0.704329        19.1658 
 144   0.0000       0.715450        19.4684 
 145   0.0000       0.722811        19.6687 
 146   0.0000       0.734672        19.9914 
 147   0.0000       0.740914        20.1613 
 148   0.0000       0.753212        20.4959 
 149   0.0000       0.762041        20.7362 
 150   0.0000       0.766051        20.8453 
 151   0.0000       0.768847        20.9214 
 152   0.0000       0.788154        21.4468 
 153   0.0000       0.790876        21.5208 
 154   0.0000       0.804088        21.8804 
 155   0.0000       0.805026        21.9059 
 156   0.0000       0.808109        21.9898 
 157   0.0000       0.823389        22.4055 
 158   0.0000       0.836148        22.7527 
 159   0.0000       0.846163        23.0253 
 160   0.0000       0.854132        23.2421 
 161   0.0000       0.865557        23.5530 
 162   0.0000       0.871499        23.7147 
 163   0.0000       0.888842        24.1866 
 164   0.0000       0.889531        24.2054 
 165   0.0000       0.893404        24.3108 
 166   0.0000       0.917199        24.9582 
 167   0.0000       0.918929        25.0053 
 168   0.0000       0.937705        25.5162 
 169   0.0000       0.963783        26.2259 
 170   0.0000       0.976262        26.5655 
 171   0.0000       0.977304        26.5938 
 172   0.0000       0.977848        26.6086 
 173   0.0000       0.999277        27.1917 
 174   0.0000       1.016641        27.6642 
 175   0.0000       1.033019        28.1099 
 176   0.0000       1.034999        28.1637 
 177   0.0000       1.042512        28.3682 
 178   0.0000       1.075651        29.2700 
 179   0.0000       1.111106        30.2347 
 180   0.0000       1.116305        30.3762 
 181   0.0000       1.138606        30.9830 
 182   0.0000       1.152618        31.3643 
 183   0.0000       1.155391        31.4398 
 184   0.0000       1.155673        31.4475 
 185   0.0000       1.181715        32.1561 
 186   0.0000       1.182219        32.1698 
 187   0.0000       1.206718        32.8365 
 188   0.0000       1.220149        33.2019 
 189   0.0000       1.227174        33.3931 
 190   0.0000       1.239330        33.7239 
 191   0.0000       1.240777        33.7633 
 192   0.0000       1.267085        34.4791 
 193   0.0000       1.269497        34.5448 
 194   0.0000       1.277674        34.7673 
 195   0.0000       1.286261        35.0009 
 196   0.0000       1.305378        35.5211 
 197   0.0000       1.308918        35.6175 
 198   0.0000       1.321119        35.9495 
 199   0.0000       1.332401        36.2565 
 200   0.0000       1.333704        36.2919 
 201   0.0000       1.347679        36.6722 
 202   0.0000       1.358390        36.9637 
 203   0.0000       1.369207        37.2580 
 204   0.0000       1.407819        38.3087 
 205   0.0000       1.408600        38.3300 
 206   0.0000       1.413346        38.4591 
 207   0.0000       1.426295        38.8115 
 208   0.0000       1.443193        39.2713 
 209   0.0000       1.462822        39.8054 
 210   0.0000       1.467858        39.9424 
 211   0.0000       1.470415        40.0120 
 212   0.0000       1.481562        40.3153 
 213   0.0000       1.489352        40.5273 
 214   0.0000       1.497053        40.7369 
 215   0.0000       1.514810        41.2201 
 216   0.0000       1.527354        41.5614 
 217   0.0000       1.527732        41.5717 
 218   0.0000       1.538119        41.8543 
 219   0.0000       1.551488        42.2181 
 220   0.0000       1.569686        42.7133 
 221   0.0000       1.577991        42.9393 
 222   0.0000       1.584393        43.1135 
 223   0.0000       1.592836        43.3433 
 224   0.0000       1.612669        43.8830 
 225   0.0000       1.624314        44.1998 
 226   0.0000       1.629967        44.3537 
 227   0.0000       1.645634        44.7800 
 228   0.0000       1.658362        45.1263 
 229   0.0000       1.670722        45.4627 
 230   0.0000       1.672361        45.5072 
 231   0.0000       1.678690        45.6795 
 232   0.0000       1.689832        45.9827 
 233   0.0000       1.690908        46.0120 
 234   0.0000       1.700530        46.2738 
 235   0.0000       1.716684        46.7134 
 236   0.0000       1.744827        47.4792 
 237   0.0000       1.758135        47.8413 
 238   0.0000       1.769964        48.1632 
 239   0.0000       1.778311        48.3903 
 240   0.0000       1.779863        48.4325 
 241   0.0000       1.806955        49.1697 
 242   0.0000       1.817700        49.4621 
 243   0.0000       1.834985        49.9325 
 244   0.0000       1.854399        50.4608 
 245   0.0000       1.864848        50.7451 
 246   0.0000       1.880264        51.1646 
 247   0.0000       1.900056        51.7032 
 248   0.0000       1.920038        52.2469 
 249   0.0000       1.928098        52.4662 
 250   0.0000       1.964509        53.4570 
 251   0.0000       1.989136        54.1271 
 252   0.0000       2.000788        54.4442 
 253   0.0000       2.011562        54.7374 
 254   0.0000       2.025966        55.1293 
 255   0.0000       2.054219        55.8981 
 256   0.0000       2.067548        56.2609 
 257   0.0000       2.085173        56.7404 
 258   0.0000       2.106937        57.3327 
 259   0.0000       2.147457        58.4353 
 260   0.0000       2.178651        59.2841 
 261   0.0000       2.196127        59.7597 
 262   0.0000       2.229698        60.6732 
 263   0.0000       2.234548        60.8051 
 264   0.0000       2.255323        61.3705 
 265   0.0000       2.268552        61.7304 
 266   0.0000       2.285615        62.1947 
 267   0.0000       2.295815        62.4723 
 268   0.0000       2.295865        62.4737 
 269   0.0000       2.314402        62.9781 
 270   0.0000       2.325500        63.2801 
 271   0.0000       2.334624        63.5283 
 272   0.0000       2.351098        63.9766 
 273   0.0000       2.351770        63.9949 
 274   0.0000       2.356152        64.1142 
 275   0.0000       2.391230        65.0687 
 276   0.0000       2.402742        65.3819 
 277   0.0000       2.418941        65.8227 
 278   0.0000       2.438465        66.3540 
 279   0.0000       2.448126        66.6169 
 280   0.0000       2.467167        67.1350 
 281   0.0000       2.525542        68.7235 
 282   0.0000       2.548995        69.3617 
 283   0.0000       2.582498        70.2733 
 284   0.0000       2.613128        71.1068 
 285   0.0000       2.628707        71.5308 
 286   0.0000       2.662940        72.4623 
 287   0.0000       2.667008        72.5730 
 288   0.0000       2.671341        72.6909 
 289   0.0000       2.683097        73.0108 
 290   0.0000       2.693188        73.2854 
 291   0.0000       2.698864        73.4398 
 292   0.0000       2.708703        73.7076 
 293   0.0000       2.725504        74.1647 
 294   0.0000       2.734574        74.4115 
 295   0.0000       2.755910        74.9921 
 296   0.0000       2.777866        75.5896 
 297   0.0000       2.805188        76.3331 
 298   0.0000       2.807149        76.3864 
 299   0.0000       2.819688        76.7276 
 300   0.0000       2.850677        77.5709 
 301   0.0000       2.860273        77.8320 
 302   0.0000       2.863214        77.9120 
 303   0.0000       2.869730        78.0893 
 304   0.0000       2.870027        78.0974 
 305   0.0000       2.873313        78.1868 
 306   0.0000       2.894474        78.7626 
 307   0.0000       2.917237        79.3821 
 308   0.0000       2.928022        79.6755 
 309   0.0000       2.939340        79.9835 
 310   0.0000       2.956672        80.4551 
 311   0.0000       2.959994        80.5455 
 312   0.0000       2.964782        80.6758 
 313   0.0000       2.973084        80.9017 
 314   0.0000       2.981312        81.1256 
 315   0.0000       3.008693        81.8707 
 316   0.0000       3.010700        81.9253 
 317   0.0000       3.012702        81.9798 
 318   0.0000       3.029546        82.4381 
 319   0.0000       3.033988        82.5590 
 320   0.0000       3.061320        83.3027 
 321   0.0000       3.061562        83.3093 
 322   0.0000       3.069173        83.5164 
 323   0.0000       3.081467        83.8510 
 324   0.0000       3.104587        84.4801 
 325   0.0000       3.116406        84.8017 
 326   0.0000       3.127317        85.0986 
 327   0.0000       3.131148        85.2029 
 328   0.0000       3.141806        85.4929 
 329   0.0000       3.154743        85.8449 
 330   0.0000       3.166911        86.1760 
 331   0.0000       3.184568        86.6565 
 332   0.0000       3.203458        87.1705 
 333   0.0000       3.212054        87.4044 
 334   0.0000       3.218259        87.5733 
 335   0.0000       3.243681        88.2651 
 336   0.0000       3.250208        88.4426 
 337   0.0000       3.259338        88.6911 
 338   0.0000       3.274463        89.1027 
 339   0.0000       3.278288        89.2068 
 340   0.0000       3.303979        89.9058 
 341   0.0000       3.309387        90.0530 
 342   0.0000       3.309834        90.0652 
 343   0.0000       3.335170        90.7546 
 344   0.0000       3.344704        91.0140 
 345   0.0000       3.382322        92.0377 
 346   0.0000       3.388062        92.1939 
 347   0.0000       3.390279        92.2542 
 348   0.0000       3.418666        93.0266 
 349   0.0000       3.423942        93.1702 
 350   0.0000       3.438715        93.5722 
 351   0.0000       3.445763        93.7640 
 352   0.0000       3.446042        93.7716 
 353   0.0000       3.490010        94.9680 
 354   0.0000       3.503510        95.3354 
 355   0.0000       3.505047        95.3772 
 356   0.0000       3.519530        95.7713 
 357   0.0000       3.534255        96.1720 
 358   0.0000       3.573716        97.2458 
 359   0.0000       3.604965        98.0961 
 360   0.0000       3.629118        98.7533 
 361   0.0000       3.636712        98.9600 
 362   0.0000       3.653438        99.4151 
 363   0.0000       3.673938        99.9729 
 364   0.0000       3.680690       100.1567 
 365   0.0000       3.682081       100.1945 
 366   0.0000       3.721813       101.2757 
 367   0.0000       3.757585       102.2491 
 368   0.0000       3.777168       102.7820 
 369   0.0000       3.791252       103.1652 
 370   0.0000       3.815838       103.8342 
 371   0.0000       3.866779       105.2204 
 372   0.0000       3.881112       105.6104 
 373   0.0000       3.920423       106.6801 
 374   0.0000       3.956919       107.6732 
 375   0.0000       3.972600       108.1000 
 376   0.0000       4.014239       109.2330 
 377   0.0000       4.041297       109.9693 
 378   0.0000       4.082757       111.0975 
 379   0.0000       4.160587       113.2153 
 380   0.0000       4.192277       114.0776 
 381   0.0000       4.245173       115.5170 
 382   0.0000       4.290599       116.7531 
 383   0.0000       4.331901       117.8770 
 384   0.0000       4.387591       119.3924 
 385   0.0000       4.436664       120.7278 
 386   0.0000       4.553363       123.9033 
 387   0.0000       4.624662       125.8435 
 388   0.0000       4.675977       127.2398 
 389   0.0000       4.729998       128.7098 
 390   0.0000       4.788567       130.3035 
 391   0.0000       4.986727       135.6958 
 392   0.0000       5.382932       146.4770 
 393   0.0000       5.558490       151.2542 
 394   0.0000       6.354186       172.9062 
 395   0.0000       6.572137       178.8369 
 396   0.0000       6.573225       178.8666 
 397   0.0000       6.773080       184.3049 
 398   0.0000       6.867416       186.8719 
 399   0.0000      21.616101       588.2040 
 400   0.0000      21.941987       597.0718 
 401   0.0000      22.033403       599.5594 
 402   0.0000      22.201086       604.1223 
 403   0.0000      22.300920       606.8389 
 404   0.0000      22.339576       607.8908 
 405   0.0000      22.400820       609.5573 
 406   0.0000      22.437899       610.5663 
 407   0.0000      22.487749       611.9228 
 408   0.0000      22.629276       615.7739 
 409   0.0000      22.696221       617.5956 
 410   0.0000      22.958294       624.7269 
 411   0.0000      23.485680       639.0778 
 412   0.0000      32.376778       881.0169 
 413   0.0000      43.913540      1194.9482 

                    ********************************
                    * MULLIKEN POPULATION ANALYSIS *
                    ********************************

-----------------------
MULLIKEN ATOMIC CHARGES
-----------------------
   0 C :   -0.240285
   1 C :   -0.061051
   2 C :   -0.263753
   3 C :    0.294410
   4 C :   -0.027896
   5 C :    0.364938
   6 O :   -0.695543
   7 C :    0.072267
   8 C :    0.298013
   9 C :   -0.247228
  10 C :   -0.255608
  11 N :   -0.219362
  12 C :    0.096438
  13 C :   -0.071944
  14 C :   -0.156846
  15 H :    0.203037
  16 H :    0.068887
  17 H :    0.102975
  18 H :    0.099406
  19 H :    0.103692
  20 H :    0.104249
  21 H :    0.134328
  22 H :    0.162045
  23 H :    0.134831
Sum of atomic charges:   -0.0000000

--------------------------------
MULLIKEN REDUCED ORBITAL CHARGES
--------------------------------
  0 C s       :     3.282169  s :     3.282169
      pz      :     1.074006  p :     2.887106
      px      :     0.914273
      py      :     0.898827
      dz2     :     0.006734  d :     0.071011
      dxz     :     0.005872
      dyz     :     0.015895
      dx2y2   :     0.019413
      dxy     :     0.023096
  1 C s       :     3.162226  s :     3.162226
      pz      :     0.926308  p :     2.805255
      px      :     0.939893
      py      :     0.939055
      dz2     :     0.005282  d :     0.093569
      dxz     :     0.010733
      dyz     :     0.023426
      dx2y2   :     0.025573
      dxy     :     0.028555
  2 C s       :     3.197205  s :     3.197205
      pz      :     1.081159  p :     2.983045
      px      :     0.952774
      py      :     0.949112
      dz2     :     0.005874  d :     0.083502
      dxz     :     0.021629
      dyz     :     0.005345
      dx2y2   :     0.026982
      dxy     :     0.023672
  3 C s       :     3.019327  s :     3.019327
      pz      :     0.896236  p :     2.523103
      px      :     0.811750
      py      :     0.815117
      dz2     :     0.007510  d :     0.163161
      dxz     :     0.028235
      dyz     :     0.028724
      dx2y2   :     0.050949
      dxy     :     0.047743
  4 C s       :     3.363660  s :     3.363660
      pz      :     1.065665  p :     2.539371
      px      :     0.749590
      py      :     0.724116
      dz2     :     0.010276  d :     0.124865
      dxz     :     0.017764
      dyz     :     0.020282
      dx2y2   :     0.046646
      dxy     :     0.029897
  5 C s       :     2.889025  s :     2.889025
      pz      :     0.811276  p :     2.527539
      px      :     0.916289
      py      :     0.799975
      dz2     :     0.006110  d :     0.218497
      dxz     :     0.019297
      dyz     :     0.047634
      dx2y2   :     0.031237
      dxy     :     0.114219
  6 O s       :     3.871057  s :     3.871057
      pz      :     1.547834  p :     4.792654
      px      :     1.821168
      py      :     1.423652
      dz2     :     0.002951  d :     0.031832
      dxz     :     0.000151
      dyz     :     0.011018
      dx2y2   :     0.009901
      dxy     :     0.007811
  7 C s       :     3.034597  s :     3.034597
      pz      :     0.901106  p :     2.719257
      px      :     1.047958
      py      :     0.770193
      dz2     :     0.005603  d :     0.173879
      dxz     :     0.031874
      dyz     :     0.033380
      dx2y2   :     0.046753
      dxy     :     0.056269
  8 C s       :     3.037229  s :     3.037229
      pz      :     0.931348  p :     2.521755
      px      :     0.839489
      py      :     0.750917
      dz2     :     0.008970  d :     0.143003
      dxz     :     0.019661
      dyz     :     0.027369
      dx2y2   :     0.045247
      dxy     :     0.041756
  9 C s       :     3.287731  s :     3.287731
      pz      :     0.987955  p :     2.872065
      px      :     0.926459
      py      :     0.957650
      dz2     :     0.005687  d :     0.087432
      dxz     :     0.011475
      dyz     :     0.018132
      dx2y2   :     0.032181
      dxy     :     0.019958
 10 C s       :     3.288719  s :     3.288719
      pz      :     0.950798  p :     2.877189
      px      :     0.983730
      py      :     0.942660
      dz2     :     0.005388  d :     0.089700
      dxz     :     0.025544
      dyz     :     0.005318
      dx2y2   :     0.026809
      dxy     :     0.026641
 11 N s       :     3.455455  s :     3.455455
      pz      :     1.432562  p :     3.690795
      px      :     1.094417
      py      :     1.163816
      dz2     :     0.005123  d :     0.073112
      dxz     :     0.008988
      dyz     :     0.014102
      dx2y2   :     0.024124
      dxy     :     0.020776
 12 C s       :     3.121639  s :     3.121639
      pz      :     0.896972  p :     2.676164
      px      :     0.792800
      py      :     0.986393
      dz2     :     0.004322  d :     0.105759
      dxz     :     0.033877
      dyz     :     0.006924
      dx2y2   :     0.030697
      dxy     :     0.029937
 13 C s       :     3.140692  s :     3.140692
      pz      :     0.999547  p :     2.853441
      px      :     0.932896
      py      :     0.920998
      dz2     :     0.006205  d :     0.077811
      dxz     :     0.009194
      dyz     :     0.015976
      dx2y2   :     0.020364
      dxy     :     0.026072
 14 C s       :     3.204804  s :     3.204804
      pz      :     0.892039  p :     2.863546
      px      :     1.000590
      py      :     0.970918
      dz2     :     0.005046  d :     0.088495
      dxz     :     0.011171
      dyz     :     0.019845
      dx2y2   :     0.023545
      dxy     :     0.028888
 15 H s       :     0.742907  s :     0.742907
      pz      :     0.010986  p :     0.054056
      px      :     0.031326
      py      :     0.011744
 16 H s       :     0.904558  s :     0.904558
      pz      :     0.006273  p :     0.026555
      px      :     0.013525
      py      :     0.006757
 17 H s       :     0.870984  s :     0.870984
      pz      :     0.005107  p :     0.026041
      px      :     0.013732
      py      :     0.007201
 18 H s       :     0.873632  s :     0.873632
      pz      :     0.006507  p :     0.026962
      px      :     0.003508
      py      :     0.016947
 19 H s       :     0.869984  s :     0.869984
      pz      :     0.005224  p :     0.026324
      px      :     0.003475
      py      :     0.017625
 20 H s       :     0.869153  s :     0.869153
      pz      :     0.005557  p :     0.026598
      px      :     0.013572
      py      :     0.007470
 21 H s       :     0.839223  s :     0.839223
      pz      :     0.004793  p :     0.026449
      px      :     0.014110
      py      :     0.007547
 22 H s       :     0.812117  s :     0.812117
      pz      :     0.004821  p :     0.025838
      px      :     0.002423
      py      :     0.018594
 23 H s       :     0.838055  s :     0.838055
      pz      :     0.005735  p :     0.027114
      px      :     0.014316
      py      :     0.007063


                     *******************************
                     * LOEWDIN POPULATION ANALYSIS *
                     *******************************

----------------------
LOEWDIN ATOMIC CHARGES
----------------------
   0 C :   -0.151555
   1 C :   -0.135177
   2 C :   -0.150895
   3 C :   -0.099708
   4 C :   -0.062619
   5 C :   -0.254997
   6 O :   -0.144346
   7 C :   -0.034774
   8 C :   -0.084322
   9 C :   -0.092181
  10 C :   -0.080657
  11 N :    0.201996
  12 C :   -0.083136
  13 C :   -0.127185
  14 C :   -0.035069
  15 H :    0.190303
  16 H :    0.128137
  17 H :    0.136513
  18 H :    0.134374
  19 H :    0.145778
  20 H :    0.145779
  21 H :    0.152146
  22 H :    0.152285
  23 H :    0.149310

-------------------------------
LOEWDIN REDUCED ORBITAL CHARGES
-------------------------------
  0 C s       :     2.783863  s :     2.783863
      pz      :     0.973368  p :     3.026291
      px      :     0.992482
      py      :     1.060441
      dz2     :     0.025817  d :     0.341400
      dxz     :     0.018587
      dyz     :     0.050787
      dx2y2   :     0.099718
      dxy     :     0.146492
  1 C s       :     2.778619  s :     2.778619
      pz      :     0.866476  p :     2.959813
      px      :     1.021744
      py      :     1.071593
      dz2     :     0.023763  d :     0.396746
      dxz     :     0.033964
      dyz     :     0.077285
      dx2y2   :     0.111437
      dxy     :     0.150296
  2 C s       :     2.764411  s :     2.764411
      pz      :     0.981626  p :     3.021805
      px      :     1.042832
      py      :     0.997347
      dz2     :     0.024111  d :     0.364679
      dxz     :     0.068636
      dyz     :     0.013603
      dx2y2   :     0.156967
      dxy     :     0.101362
[...]
      pz      :     1.063378  p :     2.890348
      px      :     0.920860
      py      :     0.906110
      dz2     :     0.006509  d :     0.070755
      dxz     :     0.007522
      dyz     :     0.015844
      dx2y2   :     0.017790
      dxy     :     0.023090
  1 C s       :     3.153292  s :     3.153292
      pz      :     0.934783  p :     2.807442
      px      :     0.937701
      py      :     0.934957
      dz2     :     0.005453  d :     0.093226
      dxz     :     0.009756
      dyz     :     0.023658
      dx2y2   :     0.026083
      dxy     :     0.028276
  2 C s       :     3.219112  s :     3.219112
      pz      :     1.064807  p :     2.974809
      px      :     0.954526
      py      :     0.955476
      dz2     :     0.005568  d :     0.084262
      dxz     :     0.021386
      dyz     :     0.005605
      dx2y2   :     0.028347
      dxy     :     0.023357
  3 C s       :     3.013690  s :     3.013690
      pz      :     0.901597  p :     2.533056
      px      :     0.803728
      py      :     0.827731
      dz2     :     0.007495  d :     0.160416
      dxz     :     0.027252
      dyz     :     0.027676
      dx2y2   :     0.048608
      dxy     :     0.049384
  4 C s       :     3.324799  s :     3.324799
      pz      :     1.053255  p :     2.503481
      px      :     0.738531
      py      :     0.711696
      dz2     :     0.010428  d :     0.123219
      dxz     :     0.018828
      dyz     :     0.021190
      dx2y2   :     0.042350
      dxy     :     0.030423
  5 C s       :     2.918390  s :     2.918390
      pz      :     0.843670  p :     2.564718
      px      :     0.921873
      py      :     0.799175
      dz2     :     0.005327  d :     0.218136
      dxz     :     0.020846
      dyz     :     0.048489
      dx2y2   :     0.032814
      dxy     :     0.110659
  6 O s       :     3.866941  s :     3.866941
      pz      :     1.638864  p :     4.831184
      px      :     1.789038
      py      :     1.403282
      dz2     :     0.003500  d :     0.030356
      dxz     :     0.000219
      dyz     :     0.008743
      dx2y2   :     0.011929
      dxy     :     0.005964
  7 C s       :     3.029312  s :     3.029312
      pz      :     0.898392  p :     2.727886
      px      :     1.051710
      py      :     0.777784
      dz2     :     0.005694  d :     0.167570
      dxz     :     0.030675
      dyz     :     0.031804
      dx2y2   :     0.043758
      dxy     :     0.055638
  8 C s       :     3.037694  s :     3.037694
      pz      :     0.928242  p :     2.526157
      px      :     0.848497
      py      :     0.749418
      dz2     :     0.008974  d :     0.145957
      dxz     :     0.019012
      dyz     :     0.028182
      dx2y2   :     0.049498
      dxy     :     0.040291
  9 C s       :     3.290395  s :     3.290395
      pz      :     0.988493  p :     2.870979
      px      :     0.927286
      py      :     0.955200
      dz2     :     0.005504  d :     0.087470
      dxz     :     0.011060
      dyz     :     0.017855
      dx2y2   :     0.031998
      dxy     :     0.021053
 10 C s       :     3.289784  s :     3.289784
      pz      :     0.950395  p :     2.870440
      px      :     0.979991
      py      :     0.940054
      dz2     :     0.005368  d :     0.089193
      dxz     :     0.024896
      dyz     :     0.005189
      dx2y2   :     0.028272
      dxy     :     0.025468
 11 N s       :     3.488697  s :     3.488697
      pz      :     1.374589  p :     3.681469
      px      :     1.113558
      py      :     1.193322
      dz2     :     0.005537  d :     0.078229
      dxz     :     0.008903
      dyz     :     0.015458
      dx2y2   :     0.026841
      dxy     :     0.021489
 12 C s       :     3.122220  s :     3.122220
      pz      :     0.888158  p :     2.667990
      px      :     0.803410
      py      :     0.976422
      dz2     :     0.004048  d :     0.102253
      dxz     :     0.030553
      dyz     :     0.007569
      dx2y2   :     0.032684
      dxy     :     0.027399
 13 C s       :     3.131785  s :     3.131785
      pz      :     0.985811  p :     2.843284
      px      :     0.930055
      py      :     0.927418
      dz2     :     0.006380  d :     0.079410
      dxz     :     0.008938
      dyz     :     0.015486
      dx2y2   :     0.020029
      dxy     :     0.028577
 14 C s       :     3.225303  s :     3.225303
      pz      :     0.889624  p :     2.862920
      px      :     0.998225
      py      :     0.975072
      dz2     :     0.005042  d :     0.088391
      dxz     :     0.010545
      dyz     :     0.019986
      dx2y2   :     0.022106
      dxy     :     0.030712
 15 H s       :     0.700789  s :     0.700789
      pz      :     0.009163  p :     0.062588
      px      :     0.045898
      py      :     0.007527
 16 H s       :     0.900696  s :     0.900696
      pz      :     0.005988  p :     0.026190
      px      :     0.013387
      py      :     0.006814
 17 H s       :     0.870221  s :     0.870221
      pz      :     0.005027  p :     0.025652
      px      :     0.014127
      py      :     0.006497
 18 H s       :     0.870069  s :     0.870069
      pz      :     0.006151  p :     0.026630
      px      :     0.003370
      py      :     0.017108
 19 H s       :     0.865060  s :     0.865060
      pz      :     0.005097  p :     0.026032
      px      :     0.003349
      py      :     0.017586
 20 H s       :     0.865160  s :     0.865160
      pz      :     0.005406  p :     0.026341
      px      :     0.013569
      py      :     0.007366
 21 H s       :     0.838422  s :     0.838422
      pz      :     0.004588  p :     0.026016
      px      :     0.014485
      py      :     0.006943
 22 H s       :     0.810095  s :     0.810095
      pz      :     0.004637  p :     0.025724
      px      :     0.002498
      py      :     0.018589
 23 H s       :     0.835544  s :     0.835544
      pz      :     0.005441  p :     0.026750
      px      :     0.014064
      py      :     0.007246


                     *******************************
                     * LOEWDIN POPULATION ANALYSIS *
                     *******************************

----------------------
LOEWDIN ATOMIC CHARGES
----------------------
   0 C :   -0.145113
   1 C :   -0.134590
   2 C :   -0.144638
   3 C :   -0.096480
   4 C :   -0.057296
   5 C :   -0.239276
   6 O :   -0.213639
   7 C :   -0.035566
   8 C :   -0.086689
   9 C :   -0.092916
  10 C :   -0.076608
  11 N :    0.192396
  12 C :   -0.077174
  13 C :   -0.120297
  14 C :   -0.035817
  15 H :    0.199182
  16 H :    0.132119
  17 H :    0.138980
  18 H :    0.137758
  19 H :    0.147405
  20 H :    0.147848
  21 H :    0.155365
  22 H :    0.153192
  23 H :    0.151855

-------------------------------
LOEWDIN REDUCED ORBITAL CHARGES
-------------------------------
  0 C s       :     2.782223  s :     2.782223
      pz      :     0.965466  p :     3.018066
      px      :     0.999740
      py      :     1.052860
      dz2     :     0.025305  d :     0.344823
      dxz     :     0.021894
      dyz     :     0.051221
      dx2y2   :     0.103525
      dxy     :     0.142878
  1 C s       :     2.780460  s :     2.780460
      pz      :     0.874571  p :     2.961110
      px      :     1.021616
      py      :     1.064922
      dz2     :     0.023816  d :     0.393020
      dxz     :     0.030184
      dyz     :     0.078317
      dx2y2   :     0.117982
      dxy     :     0.142722
  2 C s       :     2.767982  s :     2.767982
      pz      :     0.968983  p :     3.013469
      px      :     1.044491
      py      :     0.999995
      dz2     :     0.023845  d :     0.363187
      dxz     :     0.067965
      dyz     :     0.014081
      dx2y2   :     0.155940
      dxy     :     0.101355
  3 C s       :     2.710171  s :     2.710171
      pz      :     0.843851  p :     2.871300
      px      :     1.016437
      py      :     1.011013
      dz2     :     0.031530  d :     0.515009
      dxz     :     0.077213
      dyz     :     0.081049
      dx2y2   :     0.162275
      dxy     :     0.162941
  4 C s       :     2.704095  s :     2.704095
      pz      :     0.934502  p :     2.901014
      px      :     0.975594
      py      :     0.990918
      dz2     :     0.032966  d :     0.452188
      dxz     :     0.056521
      dyz     :     0.061685
      dx2y2   :     0.146461
      dxy     :     0.154555
  5 C s       :     2.732349  s :     2.732349
      pz      :     0.807588  p :     2.768092
      px      :     1.031571
      py      :     0.928933
      dz2     :     0.044847  d :     0.738835
      dxz     :     0.064237
      dyz     :     0.158746
      dx2y2   :     0.204639
      dxy     :     0.266366
  6 O s       :     3.457707  s :     3.457707
      pz      :     1.561340  p :     4.693098
      px      :     1.678907
      py      :     1.452850
      dz2     :     0.007477  d :     0.062834
      dxz     :     0.000243
      dyz     :     0.014563
      dx2y2   :     0.022612
      dxy     :     0.017939
  7 C s       :     2.700871  s :     2.700871
      pz      :     0.836760  p :     2.761148
      px      :     1.024546
      py      :     0.899843
      dz2     :     0.038259  d :     0.573547
      dxz     :     0.081798
      dyz     :     0.095286
      dx2y2   :     0.186801
      dxy     :     0.171402
  8 C s       :     2.707772  s :     2.707772
      pz      :     0.861304  p :     2.885268
      px      :     1.011440
      py      :     1.012523
      dz2     :     0.032536  d :     0.493649
      dxz     :     0.056695
      dyz     :     0.078087
      dx2y2   :     0.162139
      dxy     :     0.164192
  9 C s       :     2.770336  s :     2.770336
      pz      :     0.908598  p :     2.958447
      px      :     1.041110
      py      :     1.008738
      dz2     :     0.023439  d :     0.364133
      dxz     :     0.029846
      dyz     :     0.054812
      dx2y2   :     0.119083
      dxy     :     0.136953
 10 C s       :     2.773364  s :     2.773364
      pz      :     0.876722  p :     2.933809
      px      :     1.054220
      py      :     1.002867
      dz2     :     0.023796  d :     0.369435
      dxz     :     0.077067
      dyz     :     0.011630
      dx2y2   :     0.155550
      dxy     :     0.101392
 11 N s       :     2.940754  s :     2.940754
      pz      :     1.237592  p :     3.628615
      px      :     1.198882
      py      :     1.192141
      dz2     :     0.015168  d :     0.238234
      dxz     :     0.020477
      dyz     :     0.041064
      dx2y2   :     0.082516
      dxy     :     0.079009
 12 C s       :     2.780692  s :     2.780692
      pz      :     0.847558  p :     2.843111
      px      :     0.995938
      py      :     0.999615
      dz2     :     0.029177  d :     0.453370
      dxz     :     0.104089
      dyz     :     0.017862
      dx2y2   :     0.180930
      dxy     :     0.121312
 13 C s       :     2.776977  s :     2.776977
      pz      :     0.913228  p :     2.988300
      px      :     1.024693
      py      :     1.050379
      dz2     :     0.024136  d :     0.355020
      dxz     :     0.025914
      dyz     :     0.050550
      dx2y2   :     0.105840
      dxy     :     0.148579
 14 C s       :     2.774822  s :     2.774822
      pz      :     0.824871  p :     2.890666
      px      :     1.014021
      py      :     1.051773
      dz2     :     0.023894  d :     0.370329
      dxz     :     0.027071
      dyz     :     0.062139
      dx2y2   :     0.113125
      dxy     :     0.144099
 15 H s       :     0.640024  s :     0.640024
      pz      :     0.022151  p :     0.160794
      px      :     0.119766
      py      :     0.018877
 16 H s       :     0.806446  s :     0.806446
      pz      :     0.015126  p :     0.061436
      px      :     0.029126
      py      :     0.017184
 17 H s       :     0.801325  s :     0.801325
      pz      :     0.012562  p :     0.059696
      px      :     0.030255
      py      :     0.016878
 18 H s       :     0.799993  s :     0.799993
      pz      :     0.015763  p :     0.062249
      px      :     0.011047
      py      :     0.035440
 19 H s       :     0.791951  s :     0.791951
      pz      :     0.012830  p :     0.060644
      px      :     0.010908
      py      :     0.036906
 20 H s       :     0.790635  s :     0.790635
      pz      :     0.013702  p :     0.061517
      px      :     0.029420
      py      :     0.018395
 21 H s       :     0.783661  s :     0.783661
      pz      :     0.011568  p :     0.060974
      px      :     0.031670
      py      :     0.017736
 22 H s       :     0.784343  s :     0.784343
      pz      :     0.012195  p :     0.062465
      px      :     0.009455
      py      :     0.040814
 23 H s       :     0.785754  s :     0.785754
      pz      :     0.013606  p :     0.062392
      px      :     0.030526
      py      :     0.018260


                      *****************************
                      * MAYER POPULATION ANALYSIS *
                      *****************************

  NA   - Mulliken gross atomic population
  ZA   - Total nuclear charge
  QA   - Mulliken gross atomic charge
  VA   - Mayer's total valence
  BVA  - Mayer's bonded valence
  FA   - Mayer's free valence

  ATOM       NA         ZA         QA         VA         BVA        FA
  0 C      6.2467     6.0000    -0.2467     4.0554     4.0554     0.0000
  1 C      6.0540     6.0000    -0.0540     3.8330     3.8330     0.0000
  2 C      6.2782     6.0000    -0.2782     3.8620     3.8620     0.0000
  3 C      5.7072     6.0000     0.2928     3.7809     3.7809    -0.0000
  4 C      5.9515     6.0000     0.0485     3.3653     3.3653     0.0000
  5 C      5.7012     6.0000     0.2988     3.9693     3.9693     0.0000
  6 O      8.7285     8.0000    -0.7285     1.8038     1.8038     0.0000
  7 C      5.9248     6.0000     0.0752     3.8782     3.8782    -0.0000
  8 C      5.7098     6.0000     0.2902     3.9014     3.9014    -0.0000
  9 C      6.2488     6.0000    -0.2488     3.7787     3.7787     0.0000
 10 C      6.2494     6.0000    -0.2494     3.7905     3.7905    -0.0000
 11 N      7.2484     7.0000    -0.2484     3.3390     3.3390     0.0000
 12 C      5.8925     6.0000     0.1075     3.9020     3.9020     0.0000
 13 C      6.0545     6.0000    -0.0545     3.8732     3.8732    -0.0000
 14 C      6.1766     6.0000    -0.1766     3.9750     3.9750     0.0000
 15 H      0.7634     1.0000     0.2366     1.0180     1.0180     0.0000
 16 H      0.9269     1.0000     0.0731     1.0042     1.0042     0.0000
 17 H      0.8959     1.0000     0.1041     0.9618     0.9618     0.0000
 18 H      0.8967     1.0000     0.1033     0.9745     0.9745     0.0000
 19 H      0.8911     1.0000     0.1089     0.9757     0.9757     0.0000
 20 H      0.8915     1.0000     0.1085     0.9759     0.9759    -0.0000
 21 H      0.8644     1.0000     0.1356     0.9674     0.9674    -0.0000
 22 H      0.8358     1.0000     0.1642     0.9631     0.9631    -0.0000
 23 H      0.8623     1.0000     0.1377     0.9639     0.9639    -0.0000

  Mayer bond orders larger than 0.100000
B(  0-C ,  1-C ) :   1.4319 B(  0-C ,  5-C ) :   1.3995 B(  0-C , 16-H ) :   1.0062 
B(  1-C ,  2-C ) :   1.3393 B(  1-C , 17-H ) :   0.9887 B(  2-C ,  3-C ) :   1.3221 
B(  2-C , 18-H ) :   0.9933 B(  3-C ,  4-C ) :   1.2813 B(  3-C , 10-C ) :   1.1220 
B(  4-C ,  5-C ) :   1.0186 B(  4-C ,  7-C ) :   1.0985 B(  5-C ,  6-O ) :   1.4588 
B(  6-O , 15-H ) :   0.2328 B(  7-C ,  8-C ) :   1.3205 B(  7-C , 11-N ) :   1.2820 
B(  8-C ,  9-C ) :   1.1218 B(  8-C , 14-C ) :   1.3445 B(  9-C , 10-C ) :   1.5339 
B(  9-C , 20-H ) :   1.0175 B( 10-C , 19-H ) :   1.0108 B( 11-N , 12-C ) :   1.3194 
B( 11-N , 15-H ) :   0.7384 B( 12-C , 13-C ) :   1.4153 B( 12-C , 22-H ) :   0.9480 
B( 13-C , 14-C ) :   1.3904 B( 13-C , 23-H ) :   0.9647 B( 14-C , 21-H ) :   0.9619 


Environment variable NBOEXE for nbo6.exe or nbo5.exe not set! Skipping NBO-Analysis

-------
TIMINGS
-------

Total SCF time: 0 days 0 hours 4 min 13 sec 

Total time                  ....     253.850 sec
Sum of individual times     ....     248.274 sec  ( 97.8%)

Fock matrix formation       ....     241.154 sec  ( 95.0%)
  Split-RI-J                ....      13.969 sec  (  5.8% of F)
  Chain of spheres X        ....     180.942 sec  ( 75.0% of F)
  XC integration            ....      23.614 sec  (  9.8% of F)
    Basis function eval.    ....       4.601 sec  ( 19.5% of XC)
    Density eval.           ....       9.590 sec  ( 40.6% of XC)
    XC-Functional eval.     ....       1.585 sec  (  6.7% of XC)
    XC-Potential eval.      ....       3.837 sec  ( 16.2% of XC)
Diagonalization             ....       0.029 sec  (  0.0%)
Density matrix formation    ....       0.016 sec  (  0.0%)
Population analysis         ....       0.052 sec  (  0.0%)
Initial guess               ....       0.032 sec  (  0.0%)
Orbital Transformation      ....       0.000 sec  (  0.0%)
Orbital Orthonormalization  ....       0.027 sec  (  0.0%)
DIIS solution               ....       0.008 sec  (  0.0%)
SOSCF solution              ....       0.610 sec  (  0.2%)
Grid generation             ....       6.374 sec  (  2.5%)

Maximum memory used throughout the entire SCF-calculation: 196.3 MB

-------------------------   --------------------
FINAL SINGLE POINT ENERGY      -631.031847839476
-------------------------   --------------------

                                *** OPTIMIZATION RUN DONE ***

                            ***************************************
                            *     ORCA property calculations      *
                            ***************************************

                                    ---------------------
                                    Active property flags
                                    ---------------------
   (+) Dipole Moment


------------------------------------------------------------------------------
                       ORCA ELECTRIC PROPERTIES CALCULATION
------------------------------------------------------------------------------

Dipole Moment Calculation                       ... on
Quadrupole Moment Calculation                   ... off
Polarizability Calculation                      ... off
GBWName                                         ... HBQ-Keto_GS.gbw
Electron density                                ... HBQ-Keto_GS.scfp
The origin for moment calculation is the CENTER OF MASS  = (-1.064719, -0.744306  0.141521)

-------------
DIPOLE MOMENT
-------------
                                X             Y             Z
Electronic contribution:      1.12682       2.21561       0.04420
Nuclear contribution   :      2.43038      -2.47139      -0.13090
                        -----------------------------------------
Total Dipole Moment    :      3.55720      -0.25578      -0.08669
                        -----------------------------------------
Magnitude (a.u.)       :      3.56744
Magnitude (Debye)      :      9.06771



--------------------
Rotational spectrum 
--------------------
 
Rotational constants in cm-1:     0.039794     0.018816     0.012775 
Rotational constants in MHz :  1193.006885   564.084837   382.994882 

 Dipole components along the rotational axes: 
x,y,z [a.u.] :     3.123888    -1.722771    -0.000484 
x,y,z [Debye]:     7.940292    -4.378936    -0.001231 

 

Timings for individual modules:

Sum of individual times         ...     3597.526 sec (=  59.959 min)
GTO integral calculation        ...       21.697 sec (=   0.362 min)   0.6 %
SCF iterations                  ...     2850.867 sec (=  47.514 min)  79.2 %
SCF Gradient evaluation         ...      720.660 sec (=  12.011 min)  20.0 %
Geometry relaxation             ...        4.301 sec (=   0.072 min)   0.1 %
                             ****ORCA TERMINATED NORMALLY****
TOTAL RUN TIME: 0 days 1 hours 0 minutes 4 seconds 22 msec
