
                                 *****************
                                 * O   R   C   A *
                                 *****************

                                            #,                                       
                                            ###                                      
                                            ####                                     
                                            #####                                    
                                            ######                                   
                                           ########,                                 
                                     ,,################,,,,,                         
                               ,,#################################,,                 
                          ,,##########################################,,             
                       ,#########################################, ''#####,          
                    ,#############################################,,   '####,        
                  ,##################################################,,,,####,       
                ,###########''''           ''''###############################       
              ,#####''   ,,,,##########,,,,          '''####'''          '####       
            ,##' ,,,,###########################,,,                        '##       
           ' ,,###''''                  '''############,,,                           
         ,,##''                                '''############,,,,        ,,,,,,###''
      ,#''                                            '''#######################'''  
     '                                                          ''''####''''         
             ,#######,   #######,   ,#######,      ##                                
            ,#'     '#,  ##    ##  ,#'     '#,    #''#        ######   ,####,        
            ##       ##  ##   ,#'  ##            #'  '#       #        #'  '#        
            ##       ##  #######   ##           ,######,      #####,   #    #        
            '#,     ,#'  ##    ##  '#,     ,#' ,#      #,         ##   #,  ,#        
             '#######'   ##     ##  '#######'  #'      '#     #####' # '####'        



                  #######################################################
                  #                        -***-                        #
                  #          Department of theory and spectroscopy      #
                  #    Directorship and core code : Frank Neese         #
                  #        Max Planck Institute fuer Kohlenforschung    #
                  #                Kaiser Wilhelm Platz 1               #
                  #                 D-45470 Muelheim/Ruhr               #
                  #                      Germany                        #
                  #                                                     #
                  #                  All rights reserved                #
                  #                        -***-                        #
                  #######################################################


                         Program Version 5.0.4 -  RELEASE  -


 With contributions from (in alphabetic order):
   Daniel Aravena         : Magnetic Suceptibility
   Michael Atanasov       : Ab Initio Ligand Field Theory (pilot matlab implementation)
   Alexander A. Auer      : GIAO ZORA, VPT2 properties, NMR spectrum
   Ute Becker             : Parallelization
   Giovanni Bistoni       : ED, misc. LED, open-shell LED, HFLD
   Martin Brehm           : Molecular dynamics
   Dmytro Bykov           : SCF Hessian
   Vijay G. Chilkuri      : MRCI spin determinant printing, contributions to CSF-ICE
   Dipayan Datta          : RHF DLPNO-CCSD density
   Achintya Kumar Dutta   : EOM-CC, STEOM-CC
   Dmitry Ganyushin       : Spin-Orbit,Spin-Spin,Magnetic field MRCI
   Miquel Garcia          : C-PCM and meta-GGA Hessian, CC/C-PCM, Gaussian charge scheme
   Yang Guo               : DLPNO-NEVPT2, F12-NEVPT2, CIM, IAO-localization
   Andreas Hansen         : Spin unrestricted coupled pair/coupled cluster methods
   Benjamin Helmich-Paris : MC-RPA, TRAH-SCF, COSX integrals
   Lee Huntington         : MR-EOM, pCC
   Robert Izsak           : Overlap fitted RIJCOSX, COSX-SCS-MP3, EOM
   Marcus Kettner         : VPT2
   Christian Kollmar      : KDIIS, OOCD, Brueckner-CCSD(T), CCSD density, CASPT2, CASPT2-K
   Simone Kossmann        : Meta GGA functionals, TD-DFT gradient, OOMP2, MP2 Hessian
   Martin Krupicka        : Initial AUTO-CI
   Lucas Lang             : DCDCAS
   Marvin Lechner         : AUTO-CI (C++ implementation), FIC-MRCC
   Dagmar Lenk            : GEPOL surface, SMD
   Dimitrios Liakos       : Extrapolation schemes; Compound Job, initial MDCI parallelization
   Dimitrios Manganas     : Further ROCIS development; embedding schemes
   Dimitrios Pantazis     : SARC Basis sets
   Anastasios Papadopoulos: AUTO-CI, single reference methods and gradients
   Taras Petrenko         : DFT Hessian,TD-DFT gradient, ASA, ECA, R-Raman, ABS, FL, XAS/XES, NRVS
   Peter Pinski           : DLPNO-MP2, DLPNO-MP2 Gradient
   Christoph Reimann      : Effective Core Potentials
   Marius Retegan         : Local ZFS, SOC
   Christoph Riplinger    : Optimizer, TS searches, QM/MM, DLPNO-CCSD(T), (RO)-DLPNO pert. Triples
   Tobias Risthaus        : Range-separated hybrids, TD-DFT gradient, RPA, STAB
   Michael Roemelt        : Original ROCIS implementation
   Masaaki Saitow         : Open-shell DLPNO-CCSD energy and density
   Barbara Sandhoefer     : DKH picture change effects
   Avijit Sen             : IP-ROCIS
   Kantharuban Sivalingam : CASSCF convergence, NEVPT2, FIC-MRCI
   Bernardo de Souza      : ESD, SOC TD-DFT
   Georgi Stoychev        : AutoAux, RI-MP2 NMR, DLPNO-MP2 response
   Willem Van den Heuvel  : Paramagnetic NMR
   Boris Wezisla          : Elementary symmetry handling
   Frank Wennmohs         : Technical directorship


 We gratefully acknowledge several colleagues who have allowed us to
 interface, adapt or use parts of their codes:
   Stefan Grimme, W. Hujo, H. Kruse, P. Pracht,  : VdW corrections, initial TS optimization,
                  C. Bannwarth, S. Ehlert          DFT functionals, gCP, sTDA/sTD-DF
   Ed Valeev, F. Pavosevic, A. Kumar             : LibInt (2-el integral package), F12 methods
   Garnet Chan, S. Sharma, J. Yang, R. Olivares  : DMRG
   Ulf Ekstrom                                   : XCFun DFT Library
   Mihaly Kallay                                 : mrcc  (arbitrary order and MRCC methods)
   Jiri Pittner, Ondrej Demel                    : Mk-CCSD
   Frank Weinhold                                : gennbo (NPA and NBO analysis)
   Christopher J. Cramer and Donald G. Truhlar   : smd solvation model
   Lars Goerigk                                  : TD-DFT with DH, B97 family of functionals
   V. Asgeirsson, H. Jonsson                     : NEB implementation
   FAccTs GmbH                                   : IRC, NEB, NEB-TS, DLPNO-Multilevel, CI-OPT
                                                   MM, QMMM, 2- and 3-layer-ONIOM, Crystal-QMMM,
                                                   LR-CPCM, SF, NACMEs, symmetry and pop. for TD-DFT,
                                                   nearIR, NL-DFT gradient (VV10), updates on ESD,
                                                   ML-optimized integration grids
   S Lehtola, MJT Oliveira, MAL Marques          : LibXC Library
   Liviu Ungur et al                             : ANISO software


 Your calculation uses the libint2 library for the computation of 2-el integrals
 For citations please refer to: http://libint.valeyev.net

 Your ORCA version has been built with support for libXC version: 5.1.0
 For citations please refer to: https://tddft.org/programs/libxc/

 This ORCA versions uses:
   CBLAS   interface :  Fast vector & matrix operations
   LAPACKE interface :  Fast linear algebra routines
   SCALAPACK package :  Parallel linear algebra routines
   Shared memory     :  Shared parallel matrices
   BLAS/LAPACK       :  OpenBLAS 0.3.15  USE64BITINT DYNAMIC_ARCH NO_AFFINITY Zen SINGLE_THREADED
        Core in use  :  Zen
   Copyright (c) 2011-2014, The OpenBLAS Project


================================================================================

----- Orbital basis set information -----
Your calculation utilizes the basis: def2-TZVP(-f)
   F. Weigend and R. Ahlrichs, Phys. Chem. Chem. Phys. 7, 3297 (2005).

----- AuxJ basis set information -----
Your calculation utilizes the auxiliary basis: def2/J
   F. Weigend, Phys. Chem. Chem. Phys. 8, 1057 (2006).

----- AuxC basis set information -----
Your calculation utilizes the auxiliary basis: def2-TZVP/C
  H-La, Hf-Rn : A. Hellweg, C. Hattig, S. Hofener and W. Klopper, Theor. Chem. Acc. 117, 587 (2007).
        Ce-Lu : J. Chmela and M. E. Harding, Mol. Phys. (2018).

================================================================================
                                        WARNINGS
                       Please study these warnings very carefully!
================================================================================


INFO   : the flag for use of the SHARK integral package has been found!

================================================================================
                                       INPUT FILE
================================================================================
NAME = NMU-H_GS.inp
|  1> ! B3LYP/G FREQ Def2-TZVP(-f) Def2-TZVP/C Def2/J RIJCOSX TightSCF CPCM(Water) AllPop SOSCF
|  2> 
|  3> * xyz 1 1
|  4>   C   -6.62301999317670     -1.49584103295711     -0.05519798972172
|  5>   C   -6.60644556476160     -2.60519172662372     -1.09170592408994
|  6>   C   -5.59573730000057     -3.66717552336526     -0.67811714750573
|  7>   H   -6.34213521744953     -2.18991032762246     -2.06785734751549
|  8>   H   -7.60680018119213     -3.03222289406620     -1.17459755603997
|  9>   C   -4.24750032428526     -3.05029991795190     -0.39354916200243
| 10>   H   -5.49251012222003     -4.43458599749307     -1.44682135893228
| 11>   H   -5.96125575907918     -4.17219488017461      0.22281528468842
| 12>   C   -4.16066480849092     -1.68551800969631      0.04702243672808
| 13>   N   -5.28872149687745     -0.93025670986178      0.15552311574889
| 14>   H   -7.02074542898765     -1.87324669849858      0.89561984593089
| 15>   H   -7.27188882632973     -0.68073266090711     -0.37673355917402
| 16>   C   -5.25114292212515      0.39790526162542      0.76887473369406
| 17>   C   -3.97000303513967      1.13224995265483      0.41691512969954
| 18>   H   -5.35166265624049      0.30715425516855      1.85807362345042
| 19>   H   -6.11980133394865      0.94756229754657      0.40696145441558
| 20>   C   -2.76067067470429      0.30373341050377      0.83379018165714
| 21>   H   -3.96033388177486      2.10145421707885      0.91720417905734
| 22>   H   -3.94565820028105      1.31693895243888     -0.66007814874377
| 23>   C   -2.89118007116006     -1.12313245107127      0.35855084148554
| 24>   H   -2.66255361420210      0.31916404972951      1.92475421408410
| 25>   H   -1.84405001409429      0.74225383400139      0.43895270440365
| 26>   C   -3.10114569393158     -3.78508845194142     -0.53605713854829
| 27>   C   -1.77506031910654     -1.92236106640704      0.20765473426142
| 28>   C   -1.82910466721931     -3.25282620172819     -0.24257285569023
| 29>   O   -0.55877140675285     -1.37070727665518      0.52206417384476
| 30>   C   0.64264493993655     -2.04080785251422      0.41215975281609
| 31>   C   -0.62581518722495     -3.96741126924846     -0.35993873540570
| 32>   C   0.59427366123082     -3.41292588303307     -0.04990539967367
| 33>   O   1.63772105814040     -1.40218264512949      0.70506709661920
| 34>   C   1.84848987641414     -4.16527433641261     -0.19530183569079
| 35>   C   2.95493674413115     -3.99836112167055      0.65487688548978
| 36>   C   1.98024712019211     -5.10747323091957     -1.20979277988403
| 37>   N   3.10702727622953     -5.82218812485805     -1.33689847575580
| 38>   C   4.17110012894551     -5.68063792013495     -0.53067116285364
| 39>   C   4.10736138560759     -4.75216537476703      0.48563513558834
| 40>   H   1.21494471001242     -5.30503557538317     -1.94483157774667
| 41>   H   4.95301750319886     -4.62791444587893      1.14608705321002
| 42>   H   5.02337642494360     -6.31079718110566     -0.73305562839487
| 43>   H   2.90333217662675     -3.27895065673391      1.45717206528797
| 44>   H   -3.16510863302078     -4.81191686889087     -0.87795060033314
| 45>   H   -0.68210584626832     -4.99897077263406     -0.68837790037045
| 46>   H   3.15929017443630     -6.49849114441189     -2.09285235808859
| 47> *
| 48> 
| 49> 
| 50>                          ****END OF INPUT****
================================================================================

                       ****************************
                       * Single Point Calculation *
                       ****************************

---------------------------------
CARTESIAN COORDINATES (ANGSTROEM)
---------------------------------
  C     -6.623020   -1.495841   -0.055198
  C     -6.606446   -2.605192   -1.091706
  C     -5.595737   -3.667176   -0.678117
  H     -6.342135   -2.189910   -2.067857
  H     -7.606800   -3.032223   -1.174598
  C     -4.247500   -3.050300   -0.393549
  H     -5.492510   -4.434586   -1.446821
  H     -5.961256   -4.172195    0.222815
  C     -4.160665   -1.685518    0.047022
  N     -5.288721   -0.930257    0.155523
  H     -7.020745   -1.873247    0.895620
  H     -7.271889   -0.680733   -0.376734
  C     -5.251143    0.397905    0.768875
  C     -3.970003    1.132250    0.416915
  H     -5.351663    0.307154    1.858074
  H     -6.119801    0.947562    0.406961
  C     -2.760671    0.303733    0.833790
  H     -3.960334    2.101454    0.917204
  H     -3.945658    1.316939   -0.660078
  C     -2.891180   -1.123132    0.358551
  H     -2.662554    0.319164    1.924754
  H     -1.844050    0.742254    0.438953
  C     -3.101146   -3.785088   -0.536057
  C     -1.775060   -1.922361    0.207655
  C     -1.829105   -3.252826   -0.242573
  O     -0.558771   -1.370707    0.522064
  C      0.642645   -2.040808    0.412160
  C     -0.625815   -3.967411   -0.359939
  C      0.594274   -3.412926   -0.049905
  O      1.637721   -1.402183    0.705067
  C      1.848490   -4.165274   -0.195302
  C      2.954937   -3.998361    0.654877
  C      1.980247   -5.107473   -1.209793
  N      3.107027   -5.822188   -1.336898
  C      4.171100   -5.680638   -0.530671
  C      4.107361   -4.752165    0.485635
  H      1.214945   -5.305036   -1.944832
  H      4.953018   -4.627914    1.146087
  H      5.023376   -6.310797   -0.733056
  H      2.903332   -3.278951    1.457172
  H     -3.165109   -4.811917   -0.877951
  H     -0.682106   -4.998971   -0.688378
  H      3.159290   -6.498491   -2.092852

----------------------------
CARTESIAN COORDINATES (A.U.)
----------------------------
  NO LB      ZA    FRAG     MASS         X           Y           Z
   0 C     6.0000    0    12.011  -12.515694   -2.826730   -0.104309
   1 C     6.0000    0    12.011  -12.484373   -4.923099   -2.063025
   2 C     6.0000    0    12.011  -10.574411   -6.929957   -1.281456
   3 H     1.0000    0     1.008  -11.984899   -4.138331   -3.907684
   4 H     1.0000    0     1.008  -14.374769   -5.730071   -2.219668
   5 C     6.0000    0    12.011   -8.026612   -5.764231   -0.743700
   6 H     1.0000    0     1.008  -10.379340   -8.380153   -2.734096
   7 H     1.0000    0     1.008  -11.265141   -7.884306    0.421060
   8 C     6.0000    0    12.011   -7.862517   -3.185167    0.088860
   9 N     7.0000    0    14.007   -9.994235   -1.757930    0.293896
  10 H     1.0000    0     1.008  -13.267286   -3.539923    1.692476
  11 H     1.0000    0     1.008  -13.741878   -1.286398   -0.711923
  12 C     6.0000    0    12.011   -9.923222    0.751932    1.452963
  13 C     6.0000    0    12.011   -7.502218    2.139642    0.787855
  14 H     1.0000    0     1.008  -10.113177    0.580437    3.511250
  15 H     1.0000    0     1.008  -11.564749    1.790633    0.769046
  16 C     6.0000    0    12.011   -5.216912    0.573973    1.575635
  17 H     1.0000    0     1.008   -7.483946    3.971173    1.733265
  18 H     1.0000    0     1.008   -7.456213    2.488654   -1.247367
  19 C     6.0000    0    12.011   -5.463539   -2.122413    0.677563
  20 H     1.0000    0     1.008   -5.031497    0.603133    3.637258
  21 H     1.0000    0     1.008   -3.484750    1.402656    0.829500
  22 C     6.0000    0    12.011   -5.860316   -7.152781   -1.013001
  23 C     6.0000    0    12.011   -3.354378   -3.632736    0.392411
  24 C     6.0000    0    12.011   -3.456507   -6.146951   -0.458396
  25 O     8.0000    0    15.999   -1.055925   -2.590261    0.986558
  26 C     6.0000    0    12.011    1.214423   -3.856568    0.778869
  27 C     6.0000    0    12.011   -1.182619   -7.497321   -0.680186
  28 C     6.0000    0    12.011    1.123014   -6.449495   -0.094308
  29 O     8.0000    0    15.999    3.094844   -2.649741    1.332384
  30 C     6.0000    0    12.011    3.493140   -7.871228   -0.369067
  31 C     6.0000    0    12.011    5.584021   -7.555808    1.237538
  32 C     6.0000    0    12.011    3.742125   -9.651726   -2.286177
  33 N     7.0000    0    14.007    5.871431  -11.002341   -2.526372
  34 C     6.0000    0    12.011    7.882237  -10.734850   -1.002823
  35 C     6.0000    0    12.011    7.761788   -8.980291    0.917717
  36 H     1.0000    0     1.008    2.295913  -10.025064   -3.675199
  37 H     1.0000    0     1.008    9.359847   -8.745491    2.165791
  38 H     1.0000    0     1.008    9.492806  -11.925678   -1.385274
  39 H     1.0000    0     1.008    5.486503   -6.196319    2.753656
  40 H     1.0000    0     1.008   -5.981189   -9.093205   -1.659086
  41 H     1.0000    0     1.008   -1.288993   -9.446686   -1.300846
  42 H     1.0000    0     1.008    5.970193  -12.280369   -3.954918

--------------------------------
INTERNAL COORDINATES (ANGSTROEM)
--------------------------------
 C      0   0   0     0.000000000000     0.00000000     0.00000000
 C      1   0   0     1.518315636231     0.00000000     0.00000000
 C      2   1   0     1.523284759037   109.34603767     0.00000000
 H      2   1   3     1.093247548137   109.55099853   239.01777258
 H      2   1   3     1.090841876364   109.14074126   121.42909079
 C      3   2   1     1.509720965481   111.02949661   307.51780847
 H      3   2   1     1.091091586760   111.21282972   185.17336738
 H      3   2   1     1.095594606622   108.86076938    67.94211156
 C      6   3   2     1.436757946737   119.99378700    27.31234921
 N      9   6   3     1.361875148679   120.07683106   357.29207322
 H      1   2   3     1.097576929089   110.12742832   293.16435726
 H      1   2   3     1.090329098597   110.57265685   174.78693151
 C     10   9   6     1.463429731494   121.02657777   171.74224697
 C     13  10   9     1.518043839325   111.31705749    37.11070229
 H     13  10   9     1.097585615597   109.78704505   274.65377017
 H     13  10   9     1.089803429655   107.34297566   158.26760839
 C     14  13  10     1.524043709202   110.07639744   303.51734622
 H     14  13  10     1.090751819440   109.32813332   181.93518154
 H     14  13  10     1.092985461677   109.20794101    64.50527958
 C      9   6   3     1.422996472883   119.76630800   177.81764038
 H     17  14  13     1.095475961506   109.62233338   287.34655622
 H     17  14  13     1.090133125231   110.45367092   170.60783812
 C      6   3   2     1.369069629929   120.58669973   206.53454628
 C     20   9   6     1.381035595367   117.92752194     0.70587164
 C     24  20   9     1.405618422838   123.48366134     0.36780201
 O     24  20   9     1.372054633665   117.30368974   180.52099860
 C     26  24  20     1.380041666625   123.93517520   180.54267708
 C     25  24  20     1.404390309390   118.38815996   179.83239997
 C     28  25  24     1.375569522386   122.41320871     0.06786484
 O     27  26  24     1.218118774414   115.94085507   178.56615917
 C     29  28  25     1.469770945875   121.88762861   180.89000976
 C     31  29  28     1.405307279667   123.45074929   213.40806730
 C     31  29  28     1.390787763804   119.98535885    32.90312925
 N     33  31  29     1.340375603173   120.66675383   181.47222795
 C     34  33  31     1.342493939060   123.58217902   359.24843855
 C     35  34  33     1.378042955483   118.50797082     0.04890055
 H     33  31  29     1.079351978430   123.61263142     2.48050532
 H     36  35  34     1.080170957784   119.48676289   179.76243380
 H     35  34  33     1.079089917847   116.85954588   180.16953616
 H     32  31  29     1.078838265902   119.43544040   359.45939921
 H     23   6   3     1.084139748669   119.45628291     1.38053860
 H     28  25  24     1.084046093302   117.71122235   178.75471517
 H     34  33  31     1.015668970187   117.96237268   180.04962325

---------------------------
INTERNAL COORDINATES (A.U.)
---------------------------
 C      0   0   0     0.000000000000     0.00000000     0.00000000
 C      1   0   0     2.869200737327     0.00000000     0.00000000
 C      2   1   0     2.878591018556   109.34603767     0.00000000
 H      2   1   3     2.065938462561   109.55099853   239.01777258
 H      2   1   3     2.061392401740   109.14074126   121.42909079
 C      3   2   1     2.852959163399   111.02949661   307.51780847
 H      3   2   1     2.061864286002   111.21282972   185.17336738
 H      3   2   1     2.070373760316   108.86076938    67.94211156
 C      6   3   2     2.715079040069   119.99378700    27.31234921
 N      9   6   3     2.573571059596   120.07683106   357.29207322
 H      1   2   3     2.074119806889   110.12742832   293.16435726
 H      1   2   3     2.060423392193   110.57265685   174.78693151
 C     10   9   6     2.765481408762   121.02657777   171.74224697
 C     13  10   9     2.868687115610   111.31705749    37.11070229
 H     13  10   9     2.074136222010   109.78704505   274.65377017
 H     13  10   9     2.059430021856   107.34297566   158.26760839
 C     14  13  10     2.880025226518   110.07639744   303.51734622
 H     14  13  10     2.061222218818   109.32813332   181.93518154
 H     14  13  10     2.065443190927   109.20794101    64.50527958
 C      9   6   3     2.689073623284   119.76630800   177.81764038
 H     17  14  13     2.070149553541   109.62233338   287.34655622
 H     17  14  13     2.060053056202   110.45367092   170.60783812
 C      6   3   2     2.587166658835   120.58669973   206.53454628
 C     20   9   6     2.609779056441   117.92752194     0.70587164
 C     24  20   9     2.656233867958   123.48366134     0.36780201
 O     24  20   9     2.592807498404   117.30368974   180.52099860
 C     26  24  20     2.607900803321   123.93517520   180.54267708
 C     25  24  20     2.653913069881   118.38815996   179.83239997
 C     28  25  24     2.599449675479   122.41320871     0.06786484
 O     27  26  24     2.301910882231   115.94085507   178.56615917
 C     29  28  25     2.777464567298   121.88762861   180.89000976
 C     31  29  28     2.655645892576   123.45074929   213.40806730
 C     31  29  28     2.628207983999   119.98535885    32.90312925
 N     33  31  29     2.532942806586   120.66675383   181.47222795
 C     34  33  31     2.536945881273   123.58217902   359.24843855
 C     35  34  33     2.604123786643   118.50797082     0.04890055
 H     33  31  29     2.039679641338   123.61263142     2.48050532
 H     36  35  34     2.041227288027   119.48676289   179.76243380
 H     35  34  33     2.039184418607   116.85954588   180.16953616
 H     32  31  29     2.038708865350   119.43544040   359.45939921
 H     23   6   3     2.048727215882   119.45628291     1.38053860
 H     28  25  24     2.048550232888   117.71122235   178.75471517
 H     34  33  31     1.919336196375   117.96237268   180.04962325

---------------------
BASIS SET INFORMATION
---------------------
There are 4 groups of distinct atoms

 Group   1 Type C   : 11s6p2d contracted to 5s3p2d pattern {62111/411/11}
 Group   2 Type H   : 5s1p contracted to 3s1p pattern {311/1}
 Group   3 Type N   : 11s6p2d contracted to 5s3p2d pattern {62111/411/11}
 Group   4 Type O   : 11s6p2d contracted to 5s3p2d pattern {62111/411/11}

Atom   0C    basis set group =>   1
Atom   1C    basis set group =>   1
Atom   2C    basis set group =>   1
Atom   3H    basis set group =>   2
Atom   4H    basis set group =>   2
Atom   5C    basis set group =>   1
Atom   6H    basis set group =>   2
Atom   7H    basis set group =>   2
Atom   8C    basis set group =>   1
Atom   9N    basis set group =>   3
Atom  10H    basis set group =>   2
Atom  11H    basis set group =>   2
Atom  12C    basis set group =>   1
Atom  13C    basis set group =>   1
Atom  14H    basis set group =>   2
Atom  15H    basis set group =>   2
Atom  16C    basis set group =>   1
Atom  17H    basis set group =>   2
Atom  18H    basis set group =>   2
Atom  19C    basis set group =>   1
Atom  20H    basis set group =>   2
Atom  21H    basis set group =>   2
Atom  22C    basis set group =>   1
Atom  23C    basis set group =>   1
Atom  24C    basis set group =>   1
Atom  25O    basis set group =>   4
Atom  26C    basis set group =>   1
Atom  27C    basis set group =>   1
Atom  28C    basis set group =>   1
Atom  29O    basis set group =>   4
Atom  30C    basis set group =>   1
Atom  31C    basis set group =>   1
Atom  32C    basis set group =>   1
Atom  33N    basis set group =>   3
Atom  34C    basis set group =>   1
Atom  35C    basis set group =>   1
Atom  36H    basis set group =>   2
Atom  37H    basis set group =>   2
Atom  38H    basis set group =>   2
Atom  39H    basis set group =>   2
Atom  40H    basis set group =>   2
Atom  41H    basis set group =>   2
Atom  42H    basis set group =>   2
---------------------------------
AUXILIARY/J BASIS SET INFORMATION
---------------------------------
There are 4 groups of distinct atoms

 Group   1 Type C   : 12s5p4d2f1g contracted to 6s4p3d1f1g pattern {711111/2111/211/2/1}
 Group   2 Type H   : 5s2p1d contracted to 3s1p1d pattern {311/2/1}
 Group   3 Type N   : 12s5p4d2f1g contracted to 6s4p3d1f1g pattern {711111/2111/211/2/1}
 Group   4 Type O   : 12s5p4d2f1g contracted to 6s4p3d1f1g pattern {711111/2111/211/2/1}

Atom   0C    basis set group =>   1
Atom   1C    basis set group =>   1
Atom   2C    basis set group =>   1
Atom   3H    basis set group =>   2
Atom   4H    basis set group =>   2
Atom   5C    basis set group =>   1
Atom   6H    basis set group =>   2
Atom   7H    basis set group =>   2
Atom   8C    basis set group =>   1
Atom   9N    basis set group =>   3
Atom  10H    basis set group =>   2
Atom  11H    basis set group =>   2
Atom  12C    basis set group =>   1
Atom  13C    basis set group =>   1
Atom  14H    basis set group =>   2
Atom  15H    basis set group =>   2
Atom  16C    basis set group =>   1
Atom  17H    basis set group =>   2
Atom  18H    basis set group =>   2
Atom  19C    basis set group =>   1
Atom  20H    basis set group =>   2
Atom  21H    basis set group =>   2
Atom  22C    basis set group =>   1
Atom  23C    basis set group =>   1
Atom  24C    basis set group =>   1
Atom  25O    basis set group =>   4
Atom  26C    basis set group =>   1
Atom  27C    basis set group =>   1
Atom  28C    basis set group =>   1
Atom  29O    basis set group =>   4
Atom  30C    basis set group =>   1
Atom  31C    basis set group =>   1
Atom  32C    basis set group =>   1
Atom  33N    basis set group =>   3
Atom  34C    basis set group =>   1
Atom  35C    basis set group =>   1
Atom  36H    basis set group =>   2
Atom  37H    basis set group =>   2
Atom  38H    basis set group =>   2
Atom  39H    basis set group =>   2
Atom  40H    basis set group =>   2
Atom  41H    basis set group =>   2
Atom  42H    basis set group =>   2
---------------------------------
AUXILIARY/C BASIS SET INFORMATION
---------------------------------
There are 4 groups of distinct atoms

 Group   1 Type C   : 8s6p5d3f1g contracted to 8s6p4d3f1g pattern {11111111/111111/2111/111/1}
 Group   2 Type H   : 4s3p2d contracted to 4s2p1d pattern {1111/21/2}
 Group   3 Type N   : 8s6p5d3f1g contracted to 8s6p4d3f1g pattern {11111111/111111/2111/111/1}
 Group   4 Type O   : 8s6p5d3f1g contracted to 8s6p4d3f1g pattern {11111111/111111/2111/111/1}

Atom   0C    basis set group =>   1
Atom   1C    basis set group =>   1
Atom   2C    basis set group =>   1
Atom   3H    basis set group =>   2
Atom   4H    basis set group =>   2
Atom   5C    basis set group =>   1
Atom   6H    basis set group =>   2
Atom   7H    basis set group =>   2
Atom   8C    basis set group =>   1
Atom   9N    basis set group =>   3
Atom  10H    basis set group =>   2
Atom  11H    basis set group =>   2
Atom  12C    basis set group =>   1
Atom  13C    basis set group =>   1
Atom  14H    basis set group =>   2
Atom  15H    basis set group =>   2
Atom  16C    basis set group =>   1
Atom  17H    basis set group =>   2
Atom  18H    basis set group =>   2
Atom  19C    basis set group =>   1
Atom  20H    basis set group =>   2
Atom  21H    basis set group =>   2
Atom  22C    basis set group =>   1
Atom  23C    basis set group =>   1
Atom  24C    basis set group =>   1
Atom  25O    basis set group =>   4
Atom  26C    basis set group =>   1
Atom  27C    basis set group =>   1
Atom  28C    basis set group =>   1
Atom  29O    basis set group =>   4
Atom  30C    basis set group =>   1
Atom  31C    basis set group =>   1
Atom  32C    basis set group =>   1
Atom  33N    basis set group =>   3
Atom  34C    basis set group =>   1
Atom  35C    basis set group =>   1
Atom  36H    basis set group =>   2
Atom  37H    basis set group =>   2
Atom  38H    basis set group =>   2
Atom  39H    basis set group =>   2
Atom  40H    basis set group =>   2
Atom  41H    basis set group =>   2
Atom  42H    basis set group =>   2
------------------------------------------------------------------------------
                           ORCA GTO INTEGRAL CALCULATION
                           -- RI-GTO INTEGRALS CHOSEN --
------------------------------------------------------------------------------
------------------------------------------------------------------------------
                   ___                                                        
                  /   \      - P O W E R E D   B Y -                         
                 /     \                                                     
                 |  |  |   _    _      __       _____    __    __             
                 |  |  |  | |  | |    /  \     |  _  \  |  |  /  |          
                  \  \/   | |  | |   /    \    | | | |  |  | /  /          
                 / \  \   | |__| |  /  /\  \   | |_| |  |  |/  /          
                |  |  |   |  __  | /  /__\  \  |    /   |      \           
                |  |  |   | |  | | |   __   |  |    \   |  |\   \          
                \     /   | |  | | |  |  |  |  | |\  \  |  | \   \       
                 \___/    |_|  |_| |__|  |__|  |_| \__\ |__|  \__/        
                                                                              
                      - O R C A' S   B I G   F R I E N D -                    
                                      &                                       
                       - I N T E G R A L  F E E D E R -                       
                                                                              
 v1 FN, 2020, v2 2021                                                         
------------------------------------------------------------------------------


Reading SHARK input file NMU-H_GS.SHARKINP.tmp ... ok
----------------------
SHARK INTEGRAL PACKAGE
----------------------

Number of atoms                             ...     43
Number of basis functions                   ...    690
Number of shells                            ...    316
Maximum angular momentum                    ...      2
Integral batch strategy                     ... SHARK/LIBINT Hybrid
RI-J (if used) integral strategy            ... SPLIT-RIJ (Revised 2003 algorithm where possible)
Printlevel                                  ...      1
Contraction scheme used                     ... SEGMENTED contraction
Coulomb Range Separation                    ... NOT USED
Exchange Range Separation                   ... NOT USED
Finite Nucleus Model                        ... NOT USED
Auxiliary Coulomb fitting basis             ... AVAILABLE
   # of basis functions in Aux-J            ...   1385
   # of shells in Aux-J                     ...    455
   Maximum angular momentum in Aux-J        ...      4
Auxiliary J/K fitting basis                 ... NOT available
Auxiliary Correlation fitting basis         ... AVAILABLE
   # of basis functions in Aux-C            ...   2109
   # of shells in Aux-C                     ...    661
   Maximum angular momentum in Aux-C        ...      4
Auxiliary 'external' fitting basis          ... NOT available
Integral threshold                          ...     2.500000e-11
Primitive cut-off                           ...     2.500000e-12
Primitive pair pre-selection threshold      ...     2.500000e-12

Calculating pre-screening integrals         ... done (  0.2 sec) Dimension = 316
Organizing shell pair data                  ... done (  0.3 sec)
Shell pair information
Total number of shell pairs                 ...     50086
Shell pairs after pre-screening             ...     32985
Total number of primitive shell pairs       ...    163320
Primitive shell pairs kept                  ...     70775
          la=0 lb=0:   9799 shell pairs
          la=1 lb=0:  10958 shell pairs
          la=1 lb=1:   3064 shell pairs
          la=2 lb=0:   5384 shell pairs
          la=2 lb=1:   3025 shell pairs
          la=2 lb=2:    755 shell pairs

Calculating one electron integrals          ... done (  0.3 sec)
Calculating RI/J V-Matrix + Cholesky decomp.... done (  0.9 sec)
Calculating RI/C V-Matrix + Cholesky decomp.... done (  0.6 sec)
Calculating Nuclear repulsion               ... done (  0.0 sec) ENN=   1962.295858475682 Eh

SHARK setup successfully completed in   3.4 seconds

Maximum memory used throughout the entire GTOINT-calculation: 240.0 MB
-------------------------------------------------------------------------------
                                 ORCA SCF
-------------------------------------------------------------------------------

------------
SCF SETTINGS
------------
Hamiltonian:
 Density Functional     Method          .... DFT(GTOs)
 Exchange Functional    Exchange        .... B88
   X-Alpha parameter    XAlpha          ....  0.666667
   Becke's b parameter  XBeta           ....  0.004200
 Correlation Functional Correlation     .... LYP
 LDA part of GGA corr.  LDAOpt          .... VWN-3
 Gradients option       PostSCFGGA      .... off
 Hybrid DFT is turned on
   Fraction HF Exchange ScalHFX         ....  0.200000
   Scaling of DF-GGA-X  ScalDFX         ....  0.720000
   Scaling of DF-GGA-C  ScalDFC         ....  0.810000
   Scaling of DF-LDA-C  ScalLDAC        ....  1.000000
   Perturbative correction              ....  0.000000
   Density functional embedding theory  .... OFF
   NL short-range parameter             ....  4.800000
 RI-approximation to the Coulomb term is turned on
   Number of AuxJ basis functions       .... 1385
   RIJ-COSX (HFX calculated with COS-X)).... on


General Settings:
 Integral files         IntName         .... NMU-H_GS
 Hartree-Fock type      HFTyp           .... RHF
 Total Charge           Charge          ....    1
 Multiplicity           Mult            ....    1
 Number of Electrons    NEL             ....  168
 Basis Dimension        Dim             ....  690
 Nuclear Repulsion      ENuc            ....   1962.2958584757 Eh

Convergence Acceleration:
 DIIS                   CNVDIIS         .... on
   Start iteration      DIISMaxIt       ....    12
   Startup error        DIISStart       ....  0.200000
   # of expansion vecs  DIISMaxEq       ....     5
   Bias factor          DIISBfac        ....   1.050
   Max. coefficient     DIISMaxC        ....  10.000
 Trust-Rad. Augm. Hess. CNVTRAH         .... auto
   Auto Start mean grad. ratio tolernc. ....  1.125000
   Auto Start start iteration           ....    20
   Auto Start num. interpolation iter.  ....    10
   Max. Number of Micro iterations      ....    16
   Max. Number of Macro iterations      .... Maxiter - #DIIS iter
   Number of Davidson start vectors     ....     2
   Converg. threshold I  (grad. norm)   ....   1.000e-05
   Converg. threshold II (energy diff.) ....   1.000e-08
   Grad. Scal. Fac. for Micro threshold ....   0.100
   Minimum threshold for Micro iter.    ....   0.010
   NR start threshold (gradient norm)   ....   0.001
   Initial trust radius                 ....   0.400
   Minimum AH scaling param. (alpha)    ....   1.000
   Maximum AH scaling param. (alpha)    .... 1000.000
   Orbital update algorithm             .... Taylor
   White noise on init. David. guess    .... on
   Maximum white noise                  ....   0.010
   Quad. conv. algorithm                .... NR
 SOSCF                  CNVSOSCF        .... on
   Start iteration      SOSCFMaxIt      ....   150
   Startup grad/error   SOSCFStart      ....  0.003300
 Level Shifting         CNVShift        .... on
   Level shift para.    LevelShift      ....    0.2500
   Turn off err/grad.   ShiftErr        ....    0.0010
 Zerner damping         CNVZerner       .... off
 Static damping         CNVDamp         .... on
   Fraction old density DampFac         ....    0.7000
   Max. Damping (<1)    DampMax         ....    0.9800
   Min. Damping (>=0)   DampMin         ....    0.0000
   Turn off err/grad.   DampErr         ....    0.1000
 Fernandez-Rico         CNVRico         .... off

SCF Procedure:
 Maximum # iterations   MaxIter         ....   125
 SCF integral mode      SCFMode         .... Direct
   Integral package                     .... SHARK and LIBINT hybrid scheme
 Reset frequency        DirectResetFreq ....    20
 Integral Threshold     Thresh          ....  2.500e-11 Eh
 Primitive CutOff       TCut            ....  2.500e-12 Eh

Convergence Tolerance:
 Convergence Check Mode ConvCheckMode   .... Total+1el-Energy
 Convergence forced     ConvForced      .... 0
 Energy Change          TolE            ....  1.000e-08 Eh
 1-El. energy change                    ....  1.000e-05 Eh
 Orbital Gradient       TolG            ....  1.000e-05
 Orbital Rotation angle TolX            ....  1.000e-05
 DIIS Error             TolErr          ....  5.000e-07


Diagonalization of the overlap matrix:
Smallest eigenvalue                        ... 3.466e-06
Time for diagonalization                   ...    0.074 sec
Threshold for overlap eigenvalues          ... 1.000e-08
Number of eigenvalues below threshold      ... 0
Time for construction of square roots      ...    0.296 sec
Total time needed                          ...    0.371 sec

Time for model grid setup =    1.756 sec

------------------------------
INITIAL GUESS: MODEL POTENTIAL
------------------------------
Loading Hartree-Fock densities                     ... done
Calculating cut-offs                               ... done
Initializing the effective Hamiltonian             ... done
Setting up the integral package (SHARK)            ... done
Starting the Coulomb interaction                   ... done (   3.3 sec)
Reading the grid                                   ... done
Mapping shells                                     ... done
Starting the XC term evaluation                    ... done (   1.8 sec)
  promolecular density results
     # of electrons  =    168.997469324
     EX              =   -138.239623859
     EC              =     -5.770777123
     EX+EC           =   -144.010400982
Transforming the Hamiltonian                       ... done (   0.0 sec)
Diagonalizing the Hamiltonian                      ... done (   0.1 sec)
Back transforming the eigenvectors                 ... done (   0.0 sec)
Now organizing SCF variables                       ... done
                      ------------------
                      INITIAL GUESS DONE (   7.1 sec)
                      ------------------
-------------------
DFT GRID GENERATION
-------------------

General Integration Accuracy     IntAcc      ... 4.388
Radial Grid Type                 RadialGrid  ... OptM3 with GC (2021)
Angular Grid (max. ang.)         AngularGrid ... 4 (Lebedev-302)
Angular grid pruning method      GridPruning ... 4 (adaptive)
Weight generation scheme         WeightScheme... Becke
Basis function cutoff            BFCut       ... 1.0000e-11
Integration weight cutoff        WCut        ... 1.0000e-14
Angular grids for H and He will be reduced by one unit
Partially contracted basis set               ... off
Rotationally invariant grid construction     ... off

Total number of grid points                  ...   203422
Total number of batches                      ...     3197
Average number of points per batch           ...       63
Average number of grid points per atom       ...     4731
Time for grid setup =    5.194 sec

--------------------
COSX GRID GENERATION
--------------------

GRIDX 1
-------
General Integration Accuracy     IntAcc      ... 3.816
Radial Grid Type                 RadialGrid  ... OptM3 with GC (2021)
Angular Grid (max. ang.)         AngularGrid ... 1 (Lebedev-50)
Angular grid pruning method      GridPruning ... 4 (adaptive)
Weight generation scheme         WeightScheme... Becke
Basis function cutoff            BFCut       ... 1.0000e-11
Integration weight cutoff        WCut        ... 1.0000e-14
Angular grids for H and He will be reduced by one unit
Partially contracted basis set               ... on
Rotationally invariant grid construction     ... off

Total number of grid points                  ...    25839
Total number of batches                      ...      425
Average number of points per batch           ...       60
Average number of grid points per atom       ...      601
UseSFitting                                  ... on

GRIDX 2
-------
General Integration Accuracy     IntAcc      ... 4.020
Radial Grid Type                 RadialGrid  ... OptM3 with GC (2021)
Angular Grid (max. ang.)         AngularGrid ... 2 (Lebedev-110)
Angular grid pruning method      GridPruning ... 4 (adaptive)
Weight generation scheme         WeightScheme... Becke
Basis function cutoff            BFCut       ... 1.0000e-11
Integration weight cutoff        WCut        ... 1.0000e-14
Angular grids for H and He will be reduced by one unit
Partially contracted basis set               ... on
Rotationally invariant grid construction     ... off

Total number of grid points                  ...    55958
Total number of batches                      ...      897
Average number of points per batch           ...       62
Average number of grid points per atom       ...     1301
UseSFitting                                  ... on

GRIDX 3
-------
General Integration Accuracy     IntAcc      ... 4.338
Radial Grid Type                 RadialGrid  ... OptM3 with GC (2021)
Angular Grid (max. ang.)         AngularGrid ... 3 (Lebedev-194)
Angular grid pruning method      GridPruning ... 4 (adaptive)
Weight generation scheme         WeightScheme... Becke
Basis function cutoff            BFCut       ... 1.0000e-11
Integration weight cutoff        WCut        ... 1.0000e-14
Angular grids for H and He will be reduced by one unit
Partially contracted basis set               ... on
Rotationally invariant grid construction     ... off

Total number of grid points                  ...   122430
Total number of batches                      ...     1934
Average number of points per batch           ...       63
Average number of grid points per atom       ...     2847
UseSFitting                                  ... on

Time for X-Grid setup             =    8.101 sec


--------------------
CPCM SOLVATION MODEL
--------------------
CPCM parameters:
  Epsilon                                         ...      80.4000
  Refrac                                          ...       1.3300
  Rsolv                                           ...       1.3000
  Surface type                                    ... GAUSSIAN VDW
  Epsilon function type                           ...         CPCM
Radii:
 Radius for C  used is    3.8550 Bohr (=   2.0400 Ang.)
 Radius for H  used is    2.4944 Bohr (=   1.3200 Ang.)
 Radius for N  used is    3.5149 Bohr (=   1.8600 Ang.)
 Radius for O  used is    3.4469 Bohr (=   1.8240 Ang.)
Calculating surface                               ...        done! (  0.0s)
GEPOL surface points                              ...         2172
GEPOL Volume                                      ...    2471.1435
GEPOL Surface-area                                ...    1220.5144
Calculating surface distance matrix               ...        done! (  0.0s)
Performing Cholesky decomposition & store         ...        done! (  0.3s)
Overall time for CPCM initialization              ...                 0.4s
--------------
SCF ITERATIONS
--------------
ITER       Energy         Delta-E        Max-DP      RMS-DP      [F,P]     Damp
               ***  Starting incremental Fock matrix formation  ***
  0  -1033.2795818234   0.000000000000 0.08667017  0.00108108  0.3061588 0.7000
  1  -1033.5048285213  -0.225246697929 0.08388688  0.00084425  0.1162857 0.7000
                               ***Turning on DIIS***
  2  -1033.5979739118  -0.093145390449 0.09432786  0.00140677  0.0382075 0.0000
  3  -1033.7464216202  -0.148447708385 0.07895280  0.00061938  0.0488525 0.0000
  4  -1033.7757017051  -0.029280084922 0.01331777  0.00017871  0.0196781 0.0000
  5  -1033.7776283825  -0.001926677407 0.01174378  0.00009427  0.0116756 0.0000
                      *** Initiating the SOSCF procedure ***
                           *** Shutting down DIIS ***
                      *** Re-Reading the Fockian *** 
                      *** Removing any level shift *** 
ITER      Energy       Delta-E        Grad      Rot      Max-DP    RMS-DP
  6  -1033.77785176  -0.0002233734  0.000250  0.000250  0.002740  0.000034
               *** Restarting incremental Fock matrix formation ***
  7  -1033.77785482  -0.0000030655  0.000227  0.001665  0.002910  0.000040
  8  -1033.77785391   0.0000009101  0.000203  0.000341  0.000682  0.000011
  9  -1033.77785838  -0.0000044699  0.000027  0.000131  0.000693  0.000009
 10  -1033.77785832   0.0000000638  0.000031  0.000061  0.000192  0.000002
 11  -1033.77785851  -0.0000001928  0.000005  0.000032  0.000142  0.000002
 12  -1033.77785850   0.0000000053  0.000007  0.000011  0.000129  0.000001
                  ***Gradient check signals convergence***
              ***Rediagonalizing the Fockian in SOSCF/NRSCF***

               *****************************************************
               *                     SUCCESS                       *
               *           SCF CONVERGED AFTER  13 CYCLES          *
               *****************************************************

Old exchange energy                            =    -28.027368354 Eh
New exchange energy                            =    -28.027361756 Eh
Exchange energy change after final integration =      0.000006598 Eh
Total energy after final integration           =  -1033.777851910 Eh
Final COS-X integration done in                =   173.049 sec

----------------
TOTAL SCF ENERGY
----------------

Total Energy       :        -1033.77785191 Eh          -28130.52548 eV

Components:
Nuclear Repulsion  :         1962.29585848 Eh           53396.78495 eV
Electronic Energy  :        -2996.07371039 Eh          -81527.31043 eV
One Electron Energy:        -5281.68277414 Eh         -143721.89496 eV
Two Electron Energy:         2285.60906376 Eh           62194.58454 eV
Max COSX asymmetry :            0.00000115 Eh               0.00003 eV
CPCM Dielectric    :           -0.09425790 Eh              -2.56489 eV

Virial components:
Potential Energy   :        -2062.45308761 Eh          -56122.20171 eV
Kinetic Energy     :         1028.67523570 Eh           27991.67623 eV
Virial Ratio       :            2.00496038


DFT components:
N(Alpha)           :       83.999877562771 electrons
N(Beta)            :       83.999877562771 electrons
N(Total)           :      167.999755125543 electrons
E(X)               :     -111.381934725618 Eh       
E(C)               :       -7.378558539625 Eh       
E(XC)              :     -118.760493265243 Eh       
DFET-embed. en.    :        0.000000000000 Eh       
CPCM Solvation Model Properties:
Surface-charge          :           -1.03183620
Charge-correction       :            0.00280526 Eh               0.07634 eV
Free-energy (cav+disp)  :  This term is not implemented in the current solvation scheme

---------------
SCF CONVERGENCE
---------------

  Last Energy change         ...   -3.1428e-09  Tolerance :   1.0000e-08
  Last MAX-Density change    ...    1.7764e-15  Tolerance :   1.0000e-07
  Last RMS-Density change    ...    1.6334e-17  Tolerance :   5.0000e-09
  Last Orbital Gradient      ...    1.4163e-06  Tolerance :   1.0000e-05
  Last Orbital Rotation      ...    8.3990e-06  Tolerance :   1.0000e-05

             **** THE GBW FILE WAS UPDATED (NMU-H_GS.gbw) ****
             **** DENSITY NMU-H_GS.scfp WAS UPDATED ****
             **** ENERGY FILE WAS UPDATED (NMU-H_GS.en.tmp) ****
             **** THE GBW FILE WAS UPDATED (NMU-H_GS.gbw) ****
             **** DENSITY NMU-H_GS.scfp WAS UPDATED ****
----------------
ORBITAL ENERGIES
----------------

  NO   OCC          E(Eh)            E(eV) 
   0   2.0000     -19.201192      -522.4910 
   1   2.0000     -19.119433      -520.2662 
   2   2.0000     -14.437123      -392.8541 
   3   2.0000     -14.352188      -390.5429 
   4   2.0000     -10.316684      -280.7313 
   5   2.0000     -10.264327      -279.3065 
   6   2.0000     -10.261408      -279.2271 
   7   2.0000     -10.253479      -279.0114 
   8   2.0000     -10.236759      -278.5564 
   9   2.0000     -10.235997      -278.5356 
  10   2.0000     -10.225809      -278.2584 
  11   2.0000     -10.217654      -278.0365 
  12   2.0000     -10.214407      -277.9481 
  13   2.0000     -10.207659      -277.7645 
  14   2.0000     -10.205620      -277.7090 
  15   2.0000     -10.205058      -277.6937 
  16   2.0000     -10.191162      -277.3156 
  17   2.0000     -10.187769      -277.2233 
  18   2.0000     -10.187729      -277.2222 
  19   2.0000     -10.185390      -277.1586 
  20   2.0000     -10.176221      -276.9090 
  21   2.0000     -10.174519      -276.8627 
  22   2.0000     -10.171610      -276.7836 
  23   2.0000     -10.171562      -276.7823 
  24   2.0000      -1.128221       -30.7004 
  25   2.0000      -1.042893       -28.3786 
  26   2.0000      -1.039925       -28.2978 
  27   2.0000      -0.973786       -26.4981 
  28   2.0000      -0.882728       -24.0202 
  29   2.0000      -0.868948       -23.6453 
  30   2.0000      -0.841041       -22.8859 
  31   2.0000      -0.831497       -22.6262 
  32   2.0000      -0.815834       -22.2000 
  33   2.0000      -0.780844       -21.2478 
  34   2.0000      -0.771714       -20.9994 
  35   2.0000      -0.765336       -20.8258 
  36   2.0000      -0.707879       -19.2624 
  37   2.0000      -0.697335       -18.9754 
  38   2.0000      -0.694495       -18.8982 
  39   2.0000      -0.673562       -18.3286 
  40   2.0000      -0.662187       -18.0190 
  41   2.0000      -0.641416       -17.4538 
  42   2.0000      -0.637238       -17.3401 
  43   2.0000      -0.620142       -16.8749 
  44   2.0000      -0.601593       -16.3702 
  45   2.0000      -0.567369       -15.4389 
  46   2.0000      -0.552354       -15.0303 
  47   2.0000      -0.540976       -14.7207 
  48   2.0000      -0.529724       -14.4145 
  49   2.0000      -0.528902       -14.3922 
  50   2.0000      -0.520186       -14.1550 
  51   2.0000      -0.501184       -13.6379 
  52   2.0000      -0.488175       -13.2839 
  53   2.0000      -0.486694       -13.2436 
  54   2.0000      -0.477828       -13.0024 
  55   2.0000      -0.477133       -12.9835 
  56   2.0000      -0.472369       -12.8538 
  57   2.0000      -0.468755       -12.7555 
  58   2.0000      -0.458113       -12.4659 
  59   2.0000      -0.448299       -12.1988 
  60   2.0000      -0.445155       -12.1133 
  61   2.0000      -0.438241       -11.9251 
  62   2.0000      -0.432746       -11.7756 
  63   2.0000      -0.424718       -11.5572 
  64   2.0000      -0.414880       -11.2895 
  65   2.0000      -0.412773       -11.2321 
  66   2.0000      -0.407457       -11.0875 
  67   2.0000      -0.405313       -11.0291 
  68   2.0000      -0.400880       -10.9085 
  69   2.0000      -0.383644       -10.4395 
  70   2.0000      -0.370823       -10.0906 
  71   2.0000      -0.368309       -10.0222 
  72   2.0000      -0.361088        -9.8257 
  73   2.0000      -0.349208        -9.5024 
  74   2.0000      -0.344776        -9.3818 
  75   2.0000      -0.340936        -9.2773 
  76   2.0000      -0.339032        -9.2255 
  77   2.0000      -0.327962        -8.9243 
  78   2.0000      -0.322461        -8.7746 
  79   2.0000      -0.313401        -8.5281 
  80   2.0000      -0.297887        -8.1059 
  81   2.0000      -0.271132        -7.3779 
  82   2.0000      -0.245598        -6.6831 
  83   2.0000      -0.200777        -5.4634 
  84   0.0000      -0.091714        -2.4957 
  85   0.0000      -0.082859        -2.2547 
  86   0.0000      -0.049163        -1.3378 
  87   0.0000      -0.015401        -0.4191 
  88   0.0000      -0.003094        -0.0842 
  89   0.0000       0.026149         0.7116 
  90   0.0000       0.033105         0.9008 
  91   0.0000       0.047833         1.3016 
  92   0.0000       0.058285         1.5860 
  93   0.0000       0.061473         1.6728 
  94   0.0000       0.062961         1.7133 
  95   0.0000       0.069517         1.8917 
  96   0.0000       0.074162         2.0180 
  97   0.0000       0.077555         2.1104 
  98   0.0000       0.087069         2.3693 
  99   0.0000       0.088664         2.4127 
 100   0.0000       0.089630         2.4389 
 101   0.0000       0.092482         2.5166 
 102   0.0000       0.094859         2.5812 
 103   0.0000       0.103581         2.8186 
 104   0.0000       0.105817         2.8794 
 105   0.0000       0.112532         3.0622 
 106   0.0000       0.119050         3.2395 
 107   0.0000       0.122422         3.3313 
 108   0.0000       0.125144         3.4054 
 109   0.0000       0.130771         3.5585 
 110   0.0000       0.134552         3.6614 
 111   0.0000       0.142036         3.8650 
 112   0.0000       0.145198         3.9510 
 113   0.0000       0.148884         4.0513 
 114   0.0000       0.150765         4.1025 
 115   0.0000       0.158782         4.3207 
 116   0.0000       0.167697         4.5633 
 117   0.0000       0.171155         4.6574 
 118   0.0000       0.173890         4.7318 
 119   0.0000       0.177706         4.8356 
 120   0.0000       0.179192         4.8761 
 121   0.0000       0.182905         4.9771 
 122   0.0000       0.187538         5.1032 
 123   0.0000       0.190900         5.1947 
 124   0.0000       0.195532         5.3207 
 125   0.0000       0.199147         5.4191 
 126   0.0000       0.201732         5.4894 
 127   0.0000       0.204221         5.5571 
 128   0.0000       0.205966         5.6046 
 129   0.0000       0.209941         5.7128 
 130   0.0000       0.216360         5.8875 
 131   0.0000       0.218050         5.9334 
 132   0.0000       0.218396         5.9428 
 133   0.0000       0.225209         6.1282 
 134   0.0000       0.227288         6.1848 
 135   0.0000       0.235250         6.4015 
 136   0.0000       0.236550         6.4369 
 137   0.0000       0.240122         6.5341 
 138   0.0000       0.248337         6.7576 
 139   0.0000       0.253366         6.8944 
 140   0.0000       0.258569         7.0360 
 141   0.0000       0.261055         7.1037 
 142   0.0000       0.263102         7.1594 
 143   0.0000       0.267855         7.2887 
 144   0.0000       0.272169         7.4061 
 145   0.0000       0.280362         7.6290 
 146   0.0000       0.283725         7.7205 
 147   0.0000       0.289961         7.8902 
 148   0.0000       0.298317         8.1176 
 149   0.0000       0.302587         8.2338 
 150   0.0000       0.306463         8.3393 
 151   0.0000       0.307115         8.3570 
 152   0.0000       0.315553         8.5866 
 153   0.0000       0.318605         8.6697 
 154   0.0000       0.325748         8.8641 
 155   0.0000       0.330230         8.9860 
 156   0.0000       0.334704         9.1078 
 157   0.0000       0.335926         9.1410 
 158   0.0000       0.339711         9.2440 
 159   0.0000       0.347485         9.4556 
 160   0.0000       0.350256         9.5310 
 161   0.0000       0.351958         9.5773 
 162   0.0000       0.358114         9.7448 
 163   0.0000       0.361079         9.8254 
 164   0.0000       0.367380         9.9969 
 165   0.0000       0.371520        10.1096 
 166   0.0000       0.380664        10.3584 
 167   0.0000       0.383895        10.4463 
 168   0.0000       0.390789        10.6339 
 169   0.0000       0.396761        10.7964 
 170   0.0000       0.399670        10.8756 
 171   0.0000       0.405676        11.0390 
 172   0.0000       0.407042        11.0762 
 173   0.0000       0.410803        11.1785 
 174   0.0000       0.415112        11.2958 
 175   0.0000       0.416724        11.3396 
 176   0.0000       0.419832        11.4242 
 177   0.0000       0.421729        11.4758 
 178   0.0000       0.423227        11.5166 
 179   0.0000       0.428916        11.6714 
 180   0.0000       0.432905        11.7799 
 181   0.0000       0.436619        11.8810 
 182   0.0000       0.438719        11.9382 
 183   0.0000       0.441934        12.0256 
 184   0.0000       0.444100        12.0846 
 185   0.0000       0.448666        12.2088 
 186   0.0000       0.452118        12.3028 
 187   0.0000       0.453464        12.3394 
 188   0.0000       0.459519        12.5042 
 189   0.0000       0.460978        12.5438 
 190   0.0000       0.462607        12.5882 
 191   0.0000       0.465638        12.6707 
 192   0.0000       0.468507        12.7487 
 193   0.0000       0.471816        12.8388 
 194   0.0000       0.476816        12.9748 
 195   0.0000       0.481759        13.1093 
 196   0.0000       0.486247        13.2314 
 197   0.0000       0.490516        13.3476 
 198   0.0000       0.494210        13.4481 
 199   0.0000       0.496416        13.5082 
 200   0.0000       0.500516        13.6197 
 201   0.0000       0.508195        13.8287 
 202   0.0000       0.509844        13.8736 
 203   0.0000       0.514603        14.0031 
 204   0.0000       0.518237        14.1019 
 205   0.0000       0.528046        14.3689 
 206   0.0000       0.534559        14.5461 
 207   0.0000       0.541173        14.7261 
 208   0.0000       0.552677        15.0391 
 209   0.0000       0.555018        15.1028 
 210   0.0000       0.560608        15.2549 
 211   0.0000       0.561757        15.2862 
 212   0.0000       0.569134        15.4869 
 213   0.0000       0.578805        15.7501 
 214   0.0000       0.591906        16.1066 
 215   0.0000       0.594350        16.1731 
 216   0.0000       0.600170        16.3315 
 217   0.0000       0.606440        16.5021 
 218   0.0000       0.611657        16.6440 
 219   0.0000       0.615443        16.7471 
 220   0.0000       0.621332        16.9073 
 221   0.0000       0.630547        17.1581 
 222   0.0000       0.631130        17.1739 
 223   0.0000       0.635798        17.3010 
 224   0.0000       0.643118        17.5001 
 225   0.0000       0.647357        17.6155 
 226   0.0000       0.652429        17.7535 
 227   0.0000       0.660896        17.9839 
 228   0.0000       0.662780        18.0352 
 229   0.0000       0.669461        18.2169 
 230   0.0000       0.670605        18.2481 
 231   0.0000       0.677836        18.4449 
 232   0.0000       0.689182        18.7536 
 233   0.0000       0.692478        18.8433 
 234   0.0000       0.697946        18.9921 
 235   0.0000       0.704862        19.1803 
 236   0.0000       0.707768        19.2593 
 237   0.0000       0.714217        19.4348 
 238   0.0000       0.718207        19.5434 
 239   0.0000       0.724083        19.7033 
 240   0.0000       0.729223        19.8432 
 241   0.0000       0.735196        20.0057 
 242   0.0000       0.737060        20.0564 
 243   0.0000       0.741946        20.1894 
 244   0.0000       0.752863        20.4864 
 245   0.0000       0.755715        20.5641 
 246   0.0000       0.757493        20.6124 
 247   0.0000       0.762592        20.7512 
 248   0.0000       0.768972        20.9248 
 249   0.0000       0.771867        21.0036 
 250   0.0000       0.780253        21.2318 
 251   0.0000       0.784668        21.3519 
 252   0.0000       0.795111        21.6361 
 253   0.0000       0.803899        21.8752 
 254   0.0000       0.804447        21.8901 
 255   0.0000       0.815308        22.1856 
 256   0.0000       0.822844        22.3907 
 257   0.0000       0.827918        22.5288 
 258   0.0000       0.835435        22.7333 
 259   0.0000       0.838471        22.8160 
 260   0.0000       0.842919        22.9370 
 261   0.0000       0.849331        23.1115 
 262   0.0000       0.856275        23.3004 
 263   0.0000       0.862389        23.4668 
 264   0.0000       0.863692        23.5023 
 265   0.0000       0.867100        23.5950 
 266   0.0000       0.870669        23.6921 
 267   0.0000       0.877767        23.8852 
 268   0.0000       0.884074        24.0569 
 269   0.0000       0.885992        24.1091 
 270   0.0000       0.890093        24.2207 
 271   0.0000       0.904077        24.6012 
 272   0.0000       0.909102        24.7379 
 273   0.0000       0.915441        24.9104 
 274   0.0000       0.918433        24.9918 
 275   0.0000       0.928099        25.2549 
 276   0.0000       0.933018        25.3887 
 277   0.0000       0.943379        25.6707 
 278   0.0000       0.946119        25.7452 
 279   0.0000       0.958190        26.0737 
 280   0.0000       0.960750        26.1433 
 281   0.0000       0.965661        26.2770 
 282   0.0000       0.984161        26.7804 
 283   0.0000       0.989013        26.9124 
 284   0.0000       1.001340        27.2478 
 285   0.0000       1.005234        27.3538 
 286   0.0000       1.018992        27.7282 
 287   0.0000       1.027416        27.9574 
 288   0.0000       1.045747        28.4562 
 289   0.0000       1.049816        28.5669 
 290   0.0000       1.056948        28.7610 
 291   0.0000       1.062218        28.9044 
 292   0.0000       1.070089        29.1186 
 293   0.0000       1.081519        29.4296 
 294   0.0000       1.087321        29.5875 
 295   0.0000       1.095706        29.8157 
 296   0.0000       1.103044        30.0153 
 297   0.0000       1.105459        30.0811 
 298   0.0000       1.107009        30.1232 
 299   0.0000       1.120513        30.4907 
 300   0.0000       1.128071        30.6964 
 301   0.0000       1.140291        31.0289 
 302   0.0000       1.145747        31.1774 
 303   0.0000       1.156792        31.4779 
 304   0.0000       1.160299        31.5734 
 305   0.0000       1.165979        31.7279 
 306   0.0000       1.178654        32.0728 
 307   0.0000       1.182572        32.1794 
 308   0.0000       1.199027        32.6272 
 309   0.0000       1.205728        32.8095 
 310   0.0000       1.209820        32.9209 
 311   0.0000       1.227991        33.4153 
 312   0.0000       1.230137        33.4737 
 313   0.0000       1.238491        33.7011 
 314   0.0000       1.241506        33.7831 
 315   0.0000       1.245821        33.9005 
 316   0.0000       1.248465        33.9725 
 317   0.0000       1.251446        34.0536 
 318   0.0000       1.259970        34.2855 
 319   0.0000       1.271382        34.5961 
 320   0.0000       1.279575        34.8190 
 321   0.0000       1.282139        34.8888 
 322   0.0000       1.288072        35.0502 
 323   0.0000       1.297307        35.3015 
 324   0.0000       1.308263        35.5996 
 325   0.0000       1.319085        35.8941 
 326   0.0000       1.319592        35.9079 
 327   0.0000       1.324618        36.0447 
 328   0.0000       1.331252        36.2252 
 329   0.0000       1.340560        36.4785 
 330   0.0000       1.344013        36.5725 
 331   0.0000       1.346885        36.6506 
 332   0.0000       1.356141        36.9025 
 333   0.0000       1.369558        37.2676 
 334   0.0000       1.377679        37.4886 
 335   0.0000       1.391371        37.8611 
 336   0.0000       1.395022        37.9605 
 337   0.0000       1.404669        38.2230 
 338   0.0000       1.414525        38.4912 
 339   0.0000       1.420004        38.6403 
 340   0.0000       1.428041        38.8590 
 341   0.0000       1.431206        38.9451 
 342   0.0000       1.441736        39.2316 
 343   0.0000       1.446009        39.3479 
 344   0.0000       1.451134        39.4874 
 345   0.0000       1.456584        39.6357 
 346   0.0000       1.463544        39.8250 
 347   0.0000       1.476057        40.1656 
 348   0.0000       1.484207        40.3873 
 349   0.0000       1.485996        40.4360 
 350   0.0000       1.498756        40.7832 
 351   0.0000       1.514028        41.1988 
 352   0.0000       1.528426        41.5906 
 353   0.0000       1.533886        41.7392 
 354   0.0000       1.539328        41.8873 
 355   0.0000       1.542928        41.9852 
 356   0.0000       1.549451        42.1627 
 357   0.0000       1.555059        42.3153 
 358   0.0000       1.560686        42.4684 
 359   0.0000       1.561336        42.4861 
 360   0.0000       1.573663        42.8215 
 361   0.0000       1.582861        43.0718 
 362   0.0000       1.587134        43.1881 
 363   0.0000       1.593328        43.3567 
 364   0.0000       1.598855        43.5071 
 365   0.0000       1.604714        43.6665 
 366   0.0000       1.613123        43.8953 
 367   0.0000       1.615086        43.9487 
 368   0.0000       1.618295        44.0360 
 369   0.0000       1.630785        44.3759 
 370   0.0000       1.634854        44.4867 
 371   0.0000       1.644462        44.7481 
 372   0.0000       1.649078        44.8737 
 373   0.0000       1.659345        45.1531 
 374   0.0000       1.665964        45.3332 
 375   0.0000       1.672637        45.5148 
 376   0.0000       1.684544        45.8388 
 377   0.0000       1.685586        45.8671 
 378   0.0000       1.691772        46.0354 
 379   0.0000       1.696205        46.1561 
 380   0.0000       1.705956        46.4214 
 381   0.0000       1.708005        46.4772 
 382   0.0000       1.710878        46.5554 
 383   0.0000       1.718452        46.7615 
 384   0.0000       1.727949        47.0199 
 385   0.0000       1.729792        47.0700 
 386   0.0000       1.739999        47.3478 
 387   0.0000       1.744466        47.4693 
 388   0.0000       1.757075        47.8124 
 389   0.0000       1.763819        47.9959 
 390   0.0000       1.768516        48.1238 
 391   0.0000       1.769792        48.1585 
 392   0.0000       1.778562        48.3971 
 393   0.0000       1.784455        48.5575 
 394   0.0000       1.793099        48.7927 
 395   0.0000       1.800786        49.0019 
 396   0.0000       1.814002        49.3615 
 397   0.0000       1.822971        49.6056 
 398   0.0000       1.841263        50.1033 
 399   0.0000       1.850785        50.3624 
 400   0.0000       1.851553        50.3833 
 401   0.0000       1.860937        50.6387 
 402   0.0000       1.867234        50.8100 
 403   0.0000       1.872877        50.9636 
 404   0.0000       1.895329        51.5745 
 405   0.0000       1.901434        51.7407 
 406   0.0000       1.908007        51.9195 
 407   0.0000       1.924212        52.3605 
 408   0.0000       1.927375        52.4465 
 409   0.0000       1.956088        53.2279 
 410   0.0000       1.961115        53.3647 
 411   0.0000       1.967508        53.5386 
 412   0.0000       1.991116        54.1810 
 413   0.0000       2.000706        54.4420 
 414   0.0000       2.008731        54.6603 
 415   0.0000       2.016471        54.8710 
 416   0.0000       2.018215        54.9184 
 417   0.0000       2.022094        55.0240 
 418   0.0000       2.030001        55.2391 
 419   0.0000       2.035785        55.3965 
 420   0.0000       2.050481        55.7964 
 421   0.0000       2.058632        56.0182 
 422   0.0000       2.070921        56.3526 
 423   0.0000       2.098218        57.0954 
 424   0.0000       2.106814        57.3293 
 425   0.0000       2.119124        57.6643 
 426   0.0000       2.130101        57.9630 
 427   0.0000       2.136766        58.1444 
 428   0.0000       2.147004        58.4230 
 429   0.0000       2.174178        59.1624 
 430   0.0000       2.185839        59.4797 
 431   0.0000       2.190877        59.6168 
 432   0.0000       2.195428        59.7406 
 433   0.0000       2.203858        59.9700 
 434   0.0000       2.209549        60.1249 
 435   0.0000       2.215132        60.2768 
 436   0.0000       2.218341        60.3641 
 437   0.0000       2.223118        60.4941 
 438   0.0000       2.237612        60.8885 
 439   0.0000       2.258170        61.4479 
 440   0.0000       2.264367        61.6166 
 441   0.0000       2.269951        61.7685 
 442   0.0000       2.273323        61.8603 
 443   0.0000       2.281375        62.0794 
 444   0.0000       2.291789        62.3628 
 445   0.0000       2.297523        62.5188 
 446   0.0000       2.299962        62.5852 
 447   0.0000       2.304517        62.7091 
 448   0.0000       2.314555        62.9822 
 449   0.0000       2.322837        63.2076 
 450   0.0000       2.335868        63.5622 
 451   0.0000       2.344962        63.8097 
 452   0.0000       2.356312        64.1185 
 453   0.0000       2.367059        64.4109 
 454   0.0000       2.385555        64.9142 
 455   0.0000       2.386659        64.9443 
 456   0.0000       2.407301        65.5060 
 457   0.0000       2.414157        65.6925 
 458   0.0000       2.428574        66.0849 
 459   0.0000       2.437032        66.3150 
 460   0.0000       2.443128        66.4809 
 461   0.0000       2.452414        66.7336 
 462   0.0000       2.464909        67.0736 
 463   0.0000       2.469755        67.2054 
 464   0.0000       2.507815        68.2411 
 465   0.0000       2.516300        68.4720 
 466   0.0000       2.521324        68.6087 
 467   0.0000       2.543596        69.2148 
 468   0.0000       2.548051        69.3360 
 469   0.0000       2.562294        69.7236 
 470   0.0000       2.572351        69.9972 
 471   0.0000       2.586054        70.3701 
 472   0.0000       2.595697        70.6325 
 473   0.0000       2.603612        70.8479 
 474   0.0000       2.612374        71.0863 
 475   0.0000       2.616730        71.2048 
 476   0.0000       2.626995        71.4842 
 477   0.0000       2.640932        71.8634 
 478   0.0000       2.644535        71.9615 
 479   0.0000       2.655645        72.2638 
 480   0.0000       2.662252        72.4436 
 481   0.0000       2.662835        72.4594 
 482   0.0000       2.666019        72.5461 
 483   0.0000       2.682930        73.0062 
 484   0.0000       2.691824        73.2483 
 485   0.0000       2.694880        73.3314 
 486   0.0000       2.697509        73.4030 
 487   0.0000       2.701917        73.5229 
 488   0.0000       2.709559        73.7309 
 489   0.0000       2.721815        74.0644 
 490   0.0000       2.734294        74.4039 
 491   0.0000       2.735735        74.4431 
 492   0.0000       2.740346        74.5686 
 493   0.0000       2.748729        74.7967 
 494   0.0000       2.757893        75.0461 
 495   0.0000       2.766147        75.2707 
 496   0.0000       2.773119        75.4604 
 497   0.0000       2.777686        75.5847 
 498   0.0000       2.782127        75.7055 
 499   0.0000       2.787663        75.8562 
 500   0.0000       2.801251        76.2259 
 501   0.0000       2.803677        76.2919 
 502   0.0000       2.810512        76.4779 
 503   0.0000       2.815932        76.6254 
 504   0.0000       2.823371        76.8278 
 505   0.0000       2.827131        76.9301 
 506   0.0000       2.832192        77.0679 
 507   0.0000       2.837603        77.2151 
 508   0.0000       2.845785        77.4377 
 509   0.0000       2.851341        77.5889 
 510   0.0000       2.859398        77.8082 
 511   0.0000       2.866051        77.9892 
 512   0.0000       2.874176        78.2103 
 513   0.0000       2.877537        78.3018 
 514   0.0000       2.883102        78.4532 
 515   0.0000       2.891907        78.6928 
 516   0.0000       2.898996        78.8857 
 517   0.0000       2.915063        79.3229 
 518   0.0000       2.917787        79.3970 
 519   0.0000       2.928401        79.6858 
 520   0.0000       2.934514        79.8522 
 521   0.0000       2.943872        80.1068 
 522   0.0000       2.954091        80.3849 
 523   0.0000       2.971723        80.8647 
 524   0.0000       2.975342        80.9632 
 525   0.0000       2.980112        81.0930 
 526   0.0000       2.986984        81.2800 
 527   0.0000       3.000710        81.6535 
 528   0.0000       3.008553        81.8669 
 529   0.0000       3.010966        81.9326 
 530   0.0000       3.017092        82.0993 
 531   0.0000       3.028039        82.3971 
 532   0.0000       3.034729        82.5792 
 533   0.0000       3.052231        83.0554 
 534   0.0000       3.053726        83.0961 
 535   0.0000       3.064041        83.3768 
 536   0.0000       3.074346        83.6572 
 537   0.0000       3.079476        83.7968 
 538   0.0000       3.086285        83.9821 
 539   0.0000       3.095581        84.2350 
 540   0.0000       3.098050        84.3022 
 541   0.0000       3.103346        84.4463 
 542   0.0000       3.104759        84.4848 
 543   0.0000       3.116281        84.7983 
 544   0.0000       3.121899        84.9512 
 545   0.0000       3.126449        85.0750 
 546   0.0000       3.133760        85.2739 
 547   0.0000       3.144788        85.5740 
 548   0.0000       3.150151        85.7200 
 549   0.0000       3.156819        85.9014 
 550   0.0000       3.165280        86.1316 
 551   0.0000       3.167595        86.1946 
 552   0.0000       3.174656        86.3868 
 553   0.0000       3.182322        86.5954 
 554   0.0000       3.192324        86.8675 
 555   0.0000       3.205992        87.2395 
 556   0.0000       3.213571        87.4457 
 557   0.0000       3.227788        87.8326 
 558   0.0000       3.236160        88.0604 
 559   0.0000       3.244333        88.2828 
 560   0.0000       3.248935        88.4080 
 561   0.0000       3.257968        88.6538 
 562   0.0000       3.259570        88.6974 
 563   0.0000       3.266218        88.8783 
 564   0.0000       3.279294        89.2341 
 565   0.0000       3.282414        89.3190 
 566   0.0000       3.295978        89.6881 
 567   0.0000       3.302158        89.8563 
 568   0.0000       3.302555        89.8671 
 569   0.0000       3.307164        89.9925 
 570   0.0000       3.323810        90.4455 
 571   0.0000       3.326413        90.5163 
 572   0.0000       3.332406        90.6794 
 573   0.0000       3.339457        90.8712 
 574   0.0000       3.341789        90.9347 
 575   0.0000       3.348548        91.1186 
 576   0.0000       3.357444        91.3607 
 577   0.0000       3.365768        91.5872 
 578   0.0000       3.377291        91.9008 
 579   0.0000       3.379952        91.9732 
 580   0.0000       3.398413        92.4755 
 581   0.0000       3.408900        92.7609 
 582   0.0000       3.414059        92.9013 
 583   0.0000       3.442224        93.6677 
 584   0.0000       3.443629        93.7059 
 585   0.0000       3.469850        94.4194 
 586   0.0000       3.474096        94.5350 
 587   0.0000       3.481670        94.7411 
 588   0.0000       3.491036        94.9959 
 589   0.0000       3.501768        95.2879 
 590   0.0000       3.510031        95.5128 
 591   0.0000       3.525791        95.9416 
 592   0.0000       3.530544        96.0710 
 593   0.0000       3.545351        96.4739 
 594   0.0000       3.556773        96.7847 
 595   0.0000       3.561068        96.9016 
 596   0.0000       3.572394        97.2098 
 597   0.0000       3.580099        97.4194 
 598   0.0000       3.592493        97.7567 
 599   0.0000       3.609664        98.2240 
 600   0.0000       3.621155        98.5366 
 601   0.0000       3.631212        98.8103 
 602   0.0000       3.641693        99.0955 
 603   0.0000       3.667651        99.8018 
 604   0.0000       3.681590       100.1811 
 605   0.0000       3.689767       100.4037 
 606   0.0000       3.702951       100.7624 
 607   0.0000       3.713516       101.0499 
 608   0.0000       3.725986       101.3892 
 609   0.0000       3.759495       102.3011 
 610   0.0000       3.762943       102.3949 
 611   0.0000       3.787006       103.0497 
 612   0.0000       3.802017       103.4582 
 613   0.0000       3.815542       103.8262 
 614   0.0000       3.838137       104.4410 
 615   0.0000       3.863186       105.1226 
 616   0.0000       3.881575       105.6230 
 617   0.0000       3.889502       105.8387 
 618   0.0000       3.897660       106.0607 
 619   0.0000       3.930594       106.9569 
 620   0.0000       3.940485       107.2260 
 621   0.0000       3.942935       107.2927 
 622   0.0000       3.958254       107.7096 
 623   0.0000       3.964816       107.8881 
 624   0.0000       3.972716       108.1031 
 625   0.0000       4.001139       108.8765 
 626   0.0000       4.008304       109.0715 
 627   0.0000       4.024450       109.5108 
 628   0.0000       4.042732       110.0083 
 629   0.0000       4.047225       110.1306 
 630   0.0000       4.089033       111.2683 
 631   0.0000       4.111657       111.8839 
 632   0.0000       4.116848       112.0251 
 633   0.0000       4.171186       113.5037 
 634   0.0000       4.176209       113.6404 
 635   0.0000       4.221791       114.8808 
 636   0.0000       4.233906       115.2104 
 637   0.0000       4.270685       116.2112 
 638   0.0000       4.283917       116.5713 
 639   0.0000       4.317585       117.4875 
 640   0.0000       4.367775       118.8532 
 641   0.0000       4.410212       120.0080 
 642   0.0000       4.457483       121.2943 
 643   0.0000       4.493415       122.2720 
 644   0.0000       4.528696       123.2321 
 645   0.0000       4.640221       126.2668 
 646   0.0000       4.674958       127.2121 
 647   0.0000       4.735975       128.8724 
 648   0.0000       4.937848       134.3657 
 649   0.0000       4.999513       136.0437 
 650   0.0000       5.042201       137.2053 
 651   0.0000       5.147530       140.0714 
 652   0.0000       5.230904       142.3401 
 653   0.0000       5.440015       148.0303 
 654   0.0000       5.521096       150.2367 
 655   0.0000       5.721431       155.6881 
 656   0.0000       6.309799       171.6984 
 657   0.0000       6.410647       174.4426 
 658   0.0000       6.431081       174.9986 
 659   0.0000       6.551532       178.2762 
 660   0.0000       6.605758       179.7518 
 661   0.0000       6.701392       182.3542 
 662   0.0000       6.714173       182.7019 
 663   0.0000       6.770379       184.2314 
 664   0.0000       7.063695       192.2129 
 665   0.0000       7.184856       195.5099 
 666   0.0000      21.733388       591.3956 
[...]
 17:    272.47   0.000202    1.02  0.000232  ( 0.005415  0.013834  0.003292)
 18:    276.71   0.004410   22.28  0.004973  ( 0.055410 -0.039522 -0.018466)
 19:    310.81   0.001840    9.30  0.001847  (-0.014445  0.032417 -0.024248)
 20:    316.31   0.002692   13.61  0.002656  (-0.045220  0.011811 -0.021723)
 21:    341.56   0.005072   25.63  0.004634  (-0.063373  0.024853 -0.000147)
 22:    364.58   0.000399    2.02  0.000342  ( 0.002962 -0.017929  0.003392)
 23:    397.21   0.000815    4.12  0.000640  (-0.023580  0.003601 -0.008428)
 24:    404.43   0.001472    7.44  0.001136  ( 0.018910 -0.024843  0.012697)
 25:    409.36   0.000100    0.51  0.000076  (-0.001611 -0.001821 -0.008391)
 26:    438.91   0.004986   25.20  0.003545  (-0.055523  0.019579 -0.008882)
 27:    443.22   0.014260   72.06  0.010040  ( 0.087309 -0.048315 -0.009104)
 28:    462.34   0.002665   13.47  0.001799  (-0.041555  0.004593 -0.007148)
 29:    477.11   0.008744   44.19  0.005719  (-0.074105  0.015087  0.000526)
 30:    527.51   0.002401   12.13  0.001420  ( 0.022274 -0.027119  0.013734)
 31:    530.47   0.001215    6.14  0.000715  (-0.026647 -0.001943 -0.000823)
 32:    541.65   0.003652   18.46  0.002104  (-0.031171 -0.011657  0.031567)
 33:    560.32   0.006221   31.44  0.003465  ( 0.058060  0.002023  0.009460)
 34:    599.23   0.006706   33.89  0.003492  ( 0.054400 -0.022838 -0.003372)
 35:    620.39   0.002416   12.21  0.001215  ( 0.025029  0.023809 -0.004693)
 36:    638.67   0.002110   10.66  0.001031  ( 0.032083 -0.000920  0.000901)
 37:    644.88   0.000099    0.50  0.000048  (-0.003743  0.000653 -0.005787)
 38:    680.67   0.016683   84.31  0.007648  ( 0.021459  0.065490 -0.053842)
 39:    687.22   0.010623   53.68  0.004824  ( 0.058118  0.030842 -0.022247)
 40:    706.29   0.002022   10.22  0.000894  (-0.029332  0.002535  0.005166)
 41:    732.20   0.002222   11.23  0.000947  (-0.007461 -0.029237  0.006048)
 42:    771.55   0.003589   18.14  0.001452  ( 0.020600 -0.022635  0.022694)
 43:    779.69   0.001489    7.52  0.000596  ( 0.000056  0.015483  0.018874)
 44:    796.84   0.001515    7.66  0.000593  (-0.005635 -0.005502  0.023052)
 45:    807.84   0.021306  107.67  0.008230  (-0.024185 -0.052006  0.070290)
 46:    857.22   0.000802    4.05  0.000292  ( 0.001251  0.016973 -0.001510)
 47:    862.42   0.000330    1.67  0.000119  (-0.006808 -0.000554  0.008527)
 48:    871.53   0.002060   10.41  0.000737  ( 0.025491 -0.005670  0.007450)
 49:    880.73   0.001439    7.27  0.000510  (-0.004571  0.021959  0.002607)
 50:    895.23   0.000807    4.08  0.000281  (-0.014018 -0.007476 -0.005377)
 51:    899.06   0.001152    5.82  0.000400  (-0.014766  0.000115 -0.013488)
 52:    911.63   0.002282   11.53  0.000781  (-0.016399 -0.013833  0.017912)
 53:    919.49   0.001532    7.74  0.000520  ( 0.018403  0.005374  0.012341)
 54:    947.22   0.001835    9.27  0.000604  (-0.005842  0.018389 -0.015238)
 55:    951.91   0.001488    7.52  0.000488  (-0.006144 -0.001307  0.021171)
 56:    977.80   0.005300   26.78  0.001691  (-0.020660  0.002819  0.035449)
 57:    991.91   0.000565    2.86  0.000178  ( 0.007065  0.003985 -0.010582)
 58:   1002.39   0.006629   33.50  0.002064  ( 0.039635 -0.022008  0.002910)
 59:   1025.59   0.000457    2.31  0.000139  (-0.011399 -0.003009  0.000030)
 60:   1026.28   0.000182    0.92  0.000055  ( 0.004297 -0.004359 -0.004242)
 61:   1044.47   0.003129   15.81  0.000935  (-0.019381  0.017955  0.015390)
 62:   1047.90   0.004080   20.62  0.001215  ( 0.031692 -0.014511  0.000117)
 63:   1056.13   0.003189   16.12  0.000942  (-0.026031 -0.014584 -0.007214)
 64:   1070.82   0.006295   31.81  0.001834  ( 0.035100 -0.023143 -0.008174)
 65:   1094.95   0.001147    5.80  0.000327  (-0.010045 -0.013281  0.007046)
 66:   1098.89   0.004823   24.37  0.001370  (-0.034595  0.003953 -0.012535)
 67:   1106.92   0.005349   27.03  0.001508  ( 0.032655 -0.020972  0.001328)
 68:   1115.89   0.024525  123.94  0.006858  (-0.074662  0.031869  0.016383)
 69:   1135.21   0.002575   13.01  0.000708  ( 0.019509  0.006896  0.016723)
 70:   1166.86   0.005708   28.85  0.001527  (-0.000312 -0.036140 -0.014847)
 71:   1187.69   0.061733  311.98  0.016220  (-0.125056  0.024093 -0.000960)
 72:   1205.70   0.041949  211.99  0.010858  (-0.095067  0.042170 -0.006431)
 73:   1206.29   0.028612  144.59  0.007402  ( 0.078581 -0.035024  0.000168)
 74:   1215.57   0.010669   53.91  0.002739  (-0.044817 -0.025590 -0.008686)
 75:   1226.99   0.013689   69.18  0.003482  (-0.058516  0.005944 -0.004696)
 76:   1237.91   0.095621  483.23  0.024105  (-0.143872  0.058314  0.002293)
 77:   1240.84   0.005383   27.20  0.001354  ( 0.036392  0.004825  0.002465)
 78:   1274.71   0.059148  298.91  0.014480  ( 0.107937 -0.052108 -0.010702)
 79:   1298.11   0.035572  179.77  0.008552  ( 0.088655 -0.026093  0.003313)
 80:   1298.76   0.002400   12.13  0.000577  (-0.017094  0.006070 -0.015734)
 81:   1306.25   0.032552  164.51  0.007777  (-0.082420  0.028708 -0.012635)
 82:   1311.61   0.290110  1466.10  0.069024  (-0.258949  0.042813 -0.011686)
 83:   1336.03   0.045378  229.32  0.010599  (-0.083429  0.058058  0.016367)
 84:   1348.46   0.064645  326.69  0.014960  ( 0.104654 -0.059743 -0.020945)
 85:   1355.59   0.000819    4.14  0.000188  (-0.001120 -0.013532  0.002020)
 86:   1360.42   0.006935   35.05  0.001591  ( 0.039756 -0.001442  0.002875)
 87:   1369.81   0.017233   87.09  0.003926  ( 0.048512 -0.037371 -0.013264)
 88:   1377.25   0.004513   22.81  0.001023  ( 0.015026 -0.026059 -0.010852)
 89:   1379.54   0.011474   57.98  0.002595  ( 0.024725 -0.041973 -0.014915)
 90:   1384.61   0.004369   22.08  0.000985  ( 0.003551 -0.030642 -0.005761)
 91:   1391.81   0.013818   69.83  0.003098  (-0.054900  0.008834 -0.002452)
 92:   1403.41   0.016926   85.54  0.003764  ( 0.042253 -0.042906 -0.011726)
 93:   1451.19   0.003461   17.49  0.000744  (-0.026601 -0.004583 -0.003963)
 94:   1468.04   0.050960  257.53  0.010833  ( 0.094475 -0.043150 -0.006712)
 95:   1473.46   0.000455    2.30  0.000096  (-0.009055 -0.000177 -0.003783)
 96:   1476.10   0.040919  206.79  0.008651  (-0.075038  0.054259 -0.008711)
 97:   1482.81   0.000484    2.44  0.000102  ( 0.003987  0.009215 -0.000978)
 98:   1484.89   0.012152   61.41  0.002554  (-0.038223  0.027430  0.018454)
 99:   1493.91   0.031612  159.75  0.006603  ( 0.078416  0.006932  0.020154)
100:   1496.67   0.002137   10.80  0.000446  ( 0.018488  0.008065  0.006225)
101:   1504.16   0.009830   49.68  0.002039  ( 0.032947 -0.026802 -0.015348)
102:   1543.03   0.251487  1270.91  0.050861  (-0.211429  0.076954  0.015393)
103:   1575.65   0.132837  671.31  0.026309  (-0.158367  0.034584 -0.005722)
104:   1589.50   0.102538  518.18  0.020131  ( 0.130840 -0.054746  0.003844)
105:   1606.67   0.228865  1156.59  0.044452  ( 0.210036 -0.010782  0.014872)
106:   1639.20   0.007127   36.02  0.001357  (-0.032862  0.009033  0.013975)
107:   1641.32   0.120741  610.18  0.022957  (-0.150196 -0.005271 -0.019228)
108:   1659.44   0.003762   19.01  0.000707  (-0.000733  0.026538 -0.001607)
109:   1701.97   0.136660  690.62  0.025057  ( 0.084007  0.125605  0.047153)
110:   2984.46   0.004210   21.28  0.000440  ( 0.017194  0.011826  0.002171)
111:   2985.79   0.051744  261.49  0.005408  (-0.056949  0.018243  0.042803)
112:   3010.49   0.007782   39.33  0.000807  ( 0.018248  0.020283 -0.007889)
113:   3012.60   0.006278   31.73  0.000650  ( 0.004867  0.010786  0.022590)
114:   3038.10   0.007088   35.82  0.000728  (-0.006723  0.006944 -0.025191)
115:   3040.41   0.011036   55.77  0.001133  ( 0.003135 -0.020010  0.026879)
116:   3075.78   0.007447   37.63  0.000756  ( 0.001974  0.020814  0.017844)
117:   3079.33   0.005866   29.64  0.000594  ( 0.019171 -0.006843  0.013420)
118:   3084.67   0.006324   31.96  0.000640  ( 0.020750  0.014456  0.000436)
119:   3087.57   0.026095  131.87  0.002637  ( 0.038470 -0.033750  0.004294)
120:   3088.55   0.010431   52.71  0.001054  ( 0.025201  0.016504 -0.012100)
121:   3090.05   0.009000   45.48  0.000909  ( 0.000544 -0.008307 -0.028976)
122:   3172.28   0.001593    8.05  0.000157  ( 0.007695  0.009141  0.003735)
123:   3178.71   0.000672    3.40  0.000066  ( 0.002541 -0.007402 -0.002184)
124:   3223.11   0.000631    3.19  0.000061  (-0.005401  0.004331  0.003629)
125:   3240.76   0.000744    3.76  0.000072  (-0.001991  0.007350  0.003692)
126:   3242.84   0.001802    9.11  0.000173  ( 0.006066  0.005765  0.010167)
127:   3248.25   0.005011   25.32  0.000481  ( 0.019109 -0.010615 -0.001893)
128:   3546.28   0.067004  338.61  0.005896  ( 0.015021 -0.052746 -0.053743)

* The epsilon (eps) is given for a Dirac delta lineshape.
** The dipole moment derivative (T) already includes vibrational overlap.

The first frequency considered to be a vibration is 6
The total number of vibrations considered is 123


--------------------------
THERMOCHEMISTRY AT 298.15K
--------------------------

Temperature         ... 298.15 K
Pressure            ... 1.00 atm
Total Mass          ... 319.38 AMU

Throughout the following assumptions are being made:
  (1) The electronic state is orbitally nondegenerate
  (2) There are no thermally accessible electronically excited states
  (3) Hindered rotations indicated by low frequency modes are not
      treated as such but are treated as vibrations and this may
      cause some error
  (4) All equations used are the standard statistical mechanics
      equations for an ideal gas
  (5) All vibrations are strictly harmonic

freq.      29.53  E(vib)   ...       0.55 
freq.      45.86  E(vib)   ...       0.53 
freq.      66.10  E(vib)   ...       0.50 
freq.      73.34  E(vib)   ...       0.49 
freq.      82.60  E(vib)   ...       0.48 
freq.      94.08  E(vib)   ...       0.47 
freq.     130.49  E(vib)   ...       0.43 
freq.     156.23  E(vib)   ...       0.40 
freq.     175.88  E(vib)   ...       0.38 
freq.     188.38  E(vib)   ...       0.36 
freq.     223.41  E(vib)   ...       0.33 
freq.     272.47  E(vib)   ...       0.29 
freq.     276.71  E(vib)   ...       0.28 
freq.     310.81  E(vib)   ...       0.26 
freq.     316.31  E(vib)   ...       0.25 
freq.     341.56  E(vib)   ...       0.23 
freq.     364.58  E(vib)   ...       0.22 
freq.     397.21  E(vib)   ...       0.20 
freq.     404.43  E(vib)   ...       0.19 
freq.     409.36  E(vib)   ...       0.19 
freq.     438.91  E(vib)   ...       0.17 
freq.     443.22  E(vib)   ...       0.17 
freq.     462.34  E(vib)   ...       0.16 
freq.     477.11  E(vib)   ...       0.15 
freq.     527.51  E(vib)   ...       0.13 
freq.     530.47  E(vib)   ...       0.13 
freq.     541.65  E(vib)   ...       0.12 
freq.     560.32  E(vib)   ...       0.11 
freq.     599.23  E(vib)   ...       0.10 
freq.     620.39  E(vib)   ...       0.09 
freq.     638.67  E(vib)   ...       0.09 
freq.     644.88  E(vib)   ...       0.09 
freq.     680.67  E(vib)   ...       0.08 
freq.     687.22  E(vib)   ...       0.07 
freq.     706.29  E(vib)   ...       0.07 
freq.     732.20  E(vib)   ...       0.06 
freq.     771.55  E(vib)   ...       0.05 
freq.     779.69  E(vib)   ...       0.05 
freq.     796.84  E(vib)   ...       0.05 
freq.     807.84  E(vib)   ...       0.05 
freq.     857.22  E(vib)   ...       0.04 
freq.     862.42  E(vib)   ...       0.04 
freq.     871.53  E(vib)   ...       0.04 
freq.     880.73  E(vib)   ...       0.04 
freq.     895.23  E(vib)   ...       0.03 
freq.     899.06  E(vib)   ...       0.03 
freq.     911.63  E(vib)   ...       0.03 
freq.     919.49  E(vib)   ...       0.03 
freq.     947.22  E(vib)   ...       0.03 
freq.     951.91  E(vib)   ...       0.03 
freq.     977.80  E(vib)   ...       0.03 
freq.     991.91  E(vib)   ...       0.02 
freq.    1002.39  E(vib)   ...       0.02 
freq.    1025.59  E(vib)   ...       0.02 
freq.    1026.28  E(vib)   ...       0.02 
freq.    1044.47  E(vib)   ...       0.02 
freq.    1047.90  E(vib)   ...       0.02 
freq.    1056.13  E(vib)   ...       0.02 
freq.    1070.82  E(vib)   ...       0.02 
freq.    1094.95  E(vib)   ...       0.02 
freq.    1098.89  E(vib)   ...       0.02 
freq.    1106.92  E(vib)   ...       0.02 
freq.    1115.89  E(vib)   ...       0.01 
freq.    1135.21  E(vib)   ...       0.01 
freq.    1166.86  E(vib)   ...       0.01 
freq.    1187.69  E(vib)   ...       0.01 
freq.    1205.70  E(vib)   ...       0.01 
freq.    1206.29  E(vib)   ...       0.01 
freq.    1215.57  E(vib)   ...       0.01 
freq.    1226.99  E(vib)   ...       0.01 
freq.    1237.91  E(vib)   ...       0.01 
freq.    1240.84  E(vib)   ...       0.01 
freq.    1274.71  E(vib)   ...       0.01 
freq.    1298.11  E(vib)   ...       0.01 
freq.    1298.76  E(vib)   ...       0.01 
freq.    1306.25  E(vib)   ...       0.01 
freq.    1311.61  E(vib)   ...       0.01 
freq.    1336.03  E(vib)   ...       0.01 
freq.    1348.46  E(vib)   ...       0.01 
freq.    1355.59  E(vib)   ...       0.01 
freq.    1360.42  E(vib)   ...       0.01 
freq.    1369.81  E(vib)   ...       0.01 
freq.    1377.25  E(vib)   ...       0.01 
freq.    1379.54  E(vib)   ...       0.01 
freq.    1384.61  E(vib)   ...       0.00 
freq.    1391.81  E(vib)   ...       0.00 
freq.    1403.41  E(vib)   ...       0.00 
freq.    1451.19  E(vib)   ...       0.00 
freq.    1468.04  E(vib)   ...       0.00 
freq.    1473.46  E(vib)   ...       0.00 
freq.    1476.10  E(vib)   ...       0.00 
freq.    1482.81  E(vib)   ...       0.00 
freq.    1484.89  E(vib)   ...       0.00 
freq.    1493.91  E(vib)   ...       0.00 
freq.    1496.67  E(vib)   ...       0.00 
freq.    1504.16  E(vib)   ...       0.00 
freq.    1543.03  E(vib)   ...       0.00 
freq.    1575.65  E(vib)   ...       0.00 
freq.    1589.50  E(vib)   ...       0.00 
freq.    1606.67  E(vib)   ...       0.00 
freq.    1639.20  E(vib)   ...       0.00 
freq.    1641.32  E(vib)   ...       0.00 
freq.    1659.44  E(vib)   ...       0.00 
freq.    1701.97  E(vib)   ...       0.00 
freq.    2984.46  E(vib)   ...       0.00 
freq.    2985.79  E(vib)   ...       0.00 
freq.    3010.49  E(vib)   ...       0.00 
freq.    3012.60  E(vib)   ...       0.00 
freq.    3038.10  E(vib)   ...       0.00 
freq.    3040.41  E(vib)   ...       0.00 
freq.    3075.78  E(vib)   ...       0.00 
freq.    3079.33  E(vib)   ...       0.00 
freq.    3084.67  E(vib)   ...       0.00 
freq.    3087.57  E(vib)   ...       0.00 
freq.    3088.55  E(vib)   ...       0.00 
freq.    3090.05  E(vib)   ...       0.00 
freq.    3172.28  E(vib)   ...       0.00 
freq.    3178.71  E(vib)   ...       0.00 
freq.    3223.11  E(vib)   ...       0.00 
freq.    3240.76  E(vib)   ...       0.00 
freq.    3242.84  E(vib)   ...       0.00 
freq.    3248.25  E(vib)   ...       0.00 
freq.    3546.28  E(vib)   ...       0.00 

------------
INNER ENERGY
------------

The inner energy is: U= E(el) + E(ZPE) + E(vib) + E(rot) + E(trans)
    E(el)   - is the total energy from the electronic structure calculation
              = E(kin-el) + E(nuc-el) + E(el-el) + E(nuc-nuc)
    E(ZPE)  - the the zero temperature vibrational energy from the frequency calculation
    E(vib)  - the the finite temperature correction to E(ZPE) due to population
              of excited vibrational states
    E(rot)  - is the rotational thermal energy
    E(trans)- is the translational thermal energy

Summary of contributions to the inner energy U:
Electronic energy                ...  -1033.77785191 Eh
Zero point energy                ...      0.35585005 Eh     223.30 kcal/mol
Thermal vibrational correction   ...      0.01567850 Eh       9.84 kcal/mol
Thermal rotational correction    ...      0.00141627 Eh       0.89 kcal/mol
Thermal translational correction ...      0.00141627 Eh       0.89 kcal/mol
-----------------------------------------------------------------------
Total thermal energy                  -1033.40349082 Eh


Summary of corrections to the electronic energy:
(perhaps to be used in another calculation)
Total thermal correction                  0.01851104 Eh      11.62 kcal/mol
Non-thermal (ZPE) correction              0.35585005 Eh     223.30 kcal/mol
-----------------------------------------------------------------------
Total correction                          0.37436109 Eh     234.91 kcal/mol


--------
ENTHALPY
--------

The enthalpy is H = U + kB*T
                kB is Boltzmann's constant
Total free energy                 ...  -1033.40349082 Eh 
Thermal Enthalpy correction       ...      0.00094421 Eh       0.59 kcal/mol
-----------------------------------------------------------------------
Total Enthalpy                    ...  -1033.40254661 Eh


Note: Only C1 symmetry has been detected, increase convergence thresholds 
      if your molecule has a higher symmetry. Symmetry factor of 1.0 is   
      used for the rotational entropy correction. 
 

Note: Rotational entropy computed according to Herzberg 
Infrared and Raman Spectra, Chapter V,1, Van Nostrand Reinhold, 1945 
Point Group:  C1, Symmetry Number:   1  
Rotational constants in cm-1:     0.021231     0.003909     0.003358 

Vibrational entropy computed according to the QRRHO of S. Grimme
Chem.Eur.J. 2012 18 9955


-------
ENTROPY
-------

The entropy contributions are T*S = T*(S(el)+S(vib)+S(rot)+S(trans))
     S(el)   - electronic entropy
     S(vib)  - vibrational entropy
     S(rot)  - rotational entropy
     S(trans)- translational entropy
The entropies will be listed as multiplied by the temperature to get
units of energy

Electronic entropy                ...      0.00000000 Eh      0.00 kcal/mol
Vibrational entropy               ...      0.02682053 Eh     16.83 kcal/mol
Rotational entropy                ...      0.01663621 Eh     10.44 kcal/mol
Translational entropy             ...      0.02051585 Eh     12.87 kcal/mol
-----------------------------------------------------------------------
Final entropy term                ...      0.06397259 Eh     40.14 kcal/mol

In case the symmetry of your molecule has not been determined correctly
or in case you have a reason to use a different symmetry number we print 
out the resulting rotational entropy values for sn=1,12 :
 --------------------------------------------------------
|  sn= 1 | S(rot)=       0.01663621 Eh     10.44 kcal/mol|
|  sn= 2 | S(rot)=       0.01598175 Eh     10.03 kcal/mol|
|  sn= 3 | S(rot)=       0.01559892 Eh      9.79 kcal/mol|
|  sn= 4 | S(rot)=       0.01532730 Eh      9.62 kcal/mol|
|  sn= 5 | S(rot)=       0.01511661 Eh      9.49 kcal/mol|
|  sn= 6 | S(rot)=       0.01494447 Eh      9.38 kcal/mol|
|  sn= 7 | S(rot)=       0.01479892 Eh      9.29 kcal/mol|
|  sn= 8 | S(rot)=       0.01467284 Eh      9.21 kcal/mol|
|  sn= 9 | S(rot)=       0.01456163 Eh      9.14 kcal/mol|
|  sn=10 | S(rot)=       0.01446215 Eh      9.08 kcal/mol|
|  sn=11 | S(rot)=       0.01437216 Eh      9.02 kcal/mol|
|  sn=12 | S(rot)=       0.01429001 Eh      8.97 kcal/mol|
 --------------------------------------------------------


-------------------
GIBBS FREE ENERGY
-------------------

The Gibbs free energy is G = H - T*S

Total enthalpy                    ...  -1033.40254661 Eh 
Total entropy correction          ...     -0.06397259 Eh    -40.14 kcal/mol
-----------------------------------------------------------------------
Final Gibbs free energy         ...  -1033.46651920 Eh

For completeness - the Gibbs free energy minus the electronic energy
G-E(el)                           ...      0.31133271 Eh    195.36 kcal/mol


Timings for individual modules:

Sum of individual times         ...    20633.078 sec (= 343.885 min)
GTO integral calculation        ...        3.476 sec (=   0.058 min)   0.0 %
SCF iterations                  ...     1205.354 sec (=  20.089 min)   5.8 %
Analytical frequency calculation...    19424.248 sec (= 323.737 min)  94.1 %
                             ****ORCA TERMINATED NORMALLY****
TOTAL RUN TIME: 0 days 5 hours 43 minutes 54 seconds 592 msec
