
                                 *****************
                                 * O   R   C   A *
                                 *****************

                                            #,                                       
                                            ###                                      
                                            ####                                     
                                            #####                                    
                                            ######                                   
                                           ########,                                 
                                     ,,################,,,,,                         
                               ,,#################################,,                 
                          ,,##########################################,,             
                       ,#########################################, ''#####,          
                    ,#############################################,,   '####,        
                  ,##################################################,,,,####,       
                ,###########''''           ''''###############################       
              ,#####''   ,,,,##########,,,,          '''####'''          '####       
            ,##' ,,,,###########################,,,                        '##       
           ' ,,###''''                  '''############,,,                           
         ,,##''                                '''############,,,,        ,,,,,,###''
      ,#''                                            '''#######################'''  
     '                                                          ''''####''''         
             ,#######,   #######,   ,#######,      ##                                
            ,#'     '#,  ##    ##  ,#'     '#,    #''#        ,####,   ,####,        
            ##       ##  ##   ,#'  ##            #'  '#       #'       #'  '#        
            ##       ##  #######   ##           ,######,      #####,   #    #        
            '#,     ,#'  ##    ##  '#,     ,#' ,#      #,     #,   #   #,  ,#        
             '#######'   ##     ##  '#######'  #'      '#     '####' # '####'        



                #########################################################
                #                        -***-                          #
                #          Department of theory and spectroscopy        #
                #                                                       #
                #                      Frank Neese                      #
                #                                                       #
                #     Directorship, Architecture, Infrastructure        #
                #                    SHARK, DRIVERS                     #
                #        Core code/Algorithms in most modules           #
                #                                                       #
                #        Max Planck Institute fuer Kohlenforschung      #
                #                Kaiser Wilhelm Platz 1                 #
                #                 D-45470 Muelheim/Ruhr                 #
                #                      Germany                          #
                #                                                       #
                #                  All rights reserved                  #
                #                        -***-                          #
                #########################################################


                         Program Version 6.0.1  -  RELEASE   -


 With contributions from (in alphabetic order):
[Max-Planck-Institut fuer Kohlenforschung]                               
  Daniel Aravena         : Magnetic Suceptibility                        
  Michael Atanasov       : Ab Initio Ligand Field Theory (pilot matlab implementation)
  Alexander A. Auer      : GIAO ZORA, VPT2 properties, NMR spectrum      
  Ute Becker             : All parallelization in ORCA, NUMFREQ, NUMCALC 
  Giovanni Bistoni       : ED, misc. LED, open-shell LED, HFLD           
  Martin Brehm           : Molecular dynamics                            
  Dmytro Bykov           : pre 5.0 version of the SCF Hessian            
  Marcos Casanova-Páez   : Triplet and SCS-CIS(D). UHF-(DLPNO)-IP/EA/STEOM-CCSD. UHF-CVS-IP/STEOM-CCSD   
  Vijay G. Chilkuri      : MRCI spin determinant printing, contributions to CSF-ICE 
  Pauline Colinet        : FMM embedding                                 
  Dipayan Datta          : RHF DLPNO-CCSD density                        
  Achintya Kumar Dutta   : EOM-CC, STEOM-CC                              
  Nicolas Foglia         : Exact transition moments, OPA infrastructure, MCD improvements    
  Dmitry Ganyushin       : Spin-Orbit,Spin-Spin,Magnetic field MRCI      
  Miquel Garcia-Rates    : C-PCM and meta-GGA Hessian, CCSD/C-PCM, Gaussian charge scheme 
  Tiago L. C. Gouveia    : GS-ROHF, GS-ROCIS                             
  Yang Guo               : DLPNO-NEVPT2, F12-NEVPT2, CIM, IAO-localization        
  Andreas Hansen         : Spin unrestricted coupled pair/coupled cluster methods 
  Ingolf Harden          : AUTO-CI MPn and infrastructure                
  Benjamin Helmich-Paris : MC-RPA, TRAH-(SCF,CASSCF), AVAS, COSX integrals, SCF dyn. polar. 
  Lee Huntington         : MR-EOM, pCC                                   
  Robert Izsak           : Overlap fitted RIJCOSX, COSX-SCS-MP3, EOM     
  Riya Kayal             : Wick's Theorem for AUTO-CI, AUTO-CI UHF-CCSDT 
  Emily Kempfer          : AUTO-CI, RHF CISDT and CCSDT                  
  Christian Kollmar      : KDIIS, OOCD, Brueckner-CCSD(T), CCSD density, CASPT2, CASPT2-K, improved NEVPT2 
  Axel Koslowski         : Symmetry handling                             
  Simone Kossmann        : meta-GGA functionals, TD-DFT gradient, OOMP2, (MP2 Hessian; deprecated post 5.0) 
  Lucas Lang             : DCDCAS                                        
  Marvin Lechner         : AUTO-CI (C++ implementation), FIC-MRCC        
  Spencer Leger          : CASSCF response                               
  Dagmar Lenk            : GEPOL surface, SMD, ORCA-2-JSON               
  Dimitrios Liakos       : Extrapolation schemes; Compound Job, initial MDCI parallelization 
  Dimitrios Manganas     : Further ROCIS development; embedding schemes. LFT, Crystal Embedding 
  Dimitrios Pantazis     : SARC Basis sets                               
  Anastasios Papadopoulos: AUTO-CI, single reference methods and gradients 
  Taras Petrenko         : pre 6.0 DFT Hessian and TD-DFT gradient, (ASA, deprecated), ECA, 1-Electron XAS/XES, NRVS 
  Peter Pinski           : DLPNO-MP2, DLPNO-MP2 Gradient                 
  Christoph Reimann      : Effective Core Potentials                     
  Marius Retegan         : Local ZFS, SOC                                
  Christoph Riplinger    : Optimizer, TS searches, QM/MM, DLPNO-CCSD(T), (RO)-DLPNO pert. Triples 
  Michael Roemelt        : Original ROCIS implementation                 
  Masaaki Saitow         : Open-shell DLPNO-CCSD energy and density      
  Barbara Sandhoefer     : DKH picture change effects                    
  Kantharuban Sivalingam : CASSCF convergence/infrastructure, NEVPT2 and variants, FIC-MRCI 
  Bernardo de Souza      : ESD, SOC TD-DFT                               
  Georgi L. Stoychev     : AutoAux, RI-MP2 NMR, DLPNO-MP2 response, X2C  
  Van Anh Tran           : RI-MP2 g-tensors                              
  Willem Van den Heuvel  : Paramagnetic NMR                              
  Zikuan Wang            : NOTCH, Electric field optimization            
  Frank Wennmohs         : Technical directorship and infrastructure     
  Hang Xu                : AUTO-CI-Response properties                   
                                                                         
[FACCTs GmbH]                                                            
  Markus Bursch, Miquel Garcia-Rates, Christoph Riplinger, Bernardo de Souza, Georgi L. Stoychev 
                                                                 
  APM, Basis sets (HGBS, AHGBS, def-TZVP (Ac-Lr), def2-XVPD (La-Lu)), CI-OPT, improved COSX, DLPNO-Multilevel,           
  DOCKER, DRACO, updates on ESD, GOAT, IRC, LR-CPCM, MBIS, meta-GGA TD-DFT gradient, ML-optimized integration grids, 
  MM, NACMEs, nearIR, NEB, NEB-TS, NL-DFT gradient (VV10), 2- and 3-layer-ONIOM, interface openCOSMO-RS, QMMM,   
  Crystal-QMMM, SF, symmetry and pop. for TD-DFT, r2SCAN hybrids, SOLVATOR                                   
                                                                         
[Other institutions]                                                     
  V. Asgeirsson          : NEB                                           
  Christoph Bannwarth    : sTDA-DFT, sTD-DFT, PBEh-3c, B97-3c, D3        
  Sebastian Ehlert       : rSCAN, r2SCAN, r2SCAN-3c, D4, dhf basis sets  
  Marvin Friede          : D4 for Fr, Ra, Ac-Lr                          
  Lars Goerigk           : TD-DFT with DH, B97 family of functionals     
  Stefan Grimme          : VdW corrections, initial TS optimization, DFT functionals, gCP, sTDA/sTD-DF 
  Waldemar Hujo          : DFT-NL                                        
  H. Jonsson             : NEB                                           
  Holger Kruse           : gCP                                           
  Marcel Mueller         : wB97X-3c, vDZP basis set                      
  Hagen Neugebauer       : wr2SCAN                                       
  Tobias Risthaus        : range-separated hybrid DFT                    
  Lukas Wittmann         : regularized MP2, r2SCAN double-hybrids, wr2SCAN        
                                                                         
We gratefully acknowledge several colleagues who have allowed us to      
interface, adapt or use parts of their codes:                            
  Ed Valeev, F. Pavosevic, A. Kumar             : LibInt (2-el integral package), F12 methods 
  Garnet Chan, S. Sharma, J. Yang, R. Olivares  : DMRG                   
  Ulf Ekstrom                                   : XCFun DFT Library      
  Mihaly Kallay                                 : mrcc  (arbitrary order and MRCC methods)
  Frank Weinhold                                : gennbo (NPA and NBO analysis)           
  Simon Mueller                                 : openCOSMO-RS                            
  Christopher J. Cramer and Donald G. Truhlar   : smd solvation model                     
  S Lehtola, MJT Oliveira, MAL Marques          : LibXC Library                           
  Liviu Ungur et al                             : ANISO software                          


 Your calculation uses the libint2 library for the computation of 2-el integrals
 For citations please refer to: http://libint.valeyev.net

 Your ORCA version has been built with support for libXC version: 6.2.2
 For citations please refer to: https://libxc.gitlab.io

 This ORCA versions uses:
   CBLAS   interface :  Fast vector & matrix operations
   LAPACKE interface :  Fast linear algebra routines
   SCALAPACK package :  Parallel linear algebra routines
   Shared memory     :  Shared parallel matrices
   BLAS/LAPACK       :  OpenBLAS 0.3.27  USE64BITINT DYNAMIC_ARCH NO_AFFINITY Zen SINGLE_THREADED
        Core in use  :  Zen
   Copyright (c) 2011-2014, The OpenBLAS Project


Warning: RI is on but no J-basis has been assigned. Assigning Def2/J (nothing to worry about!)
================================================================================

----- Orbital basis set information -----
Your calculation utilizes the basis: 6-311G*
   H, Li - Ne  : R. Krishnan, J. S. Binkley, R. Seeger and J. A. Pople, J. Chem. Phys. 72, 650 (1980).
   Na - Ar     : A. D. McLean and G. S. Chandler J. Chem. Phys. 72, 5639, (1980).
   K  - Ca     : J.-P. Blaudeau, M. P. McGrath, L. A. Curtiss and L. Radom, J. Chem. Phys. 107, 5016 (1997).
   Ga - Kr     : L. A. Curtiss, M. P. McGrath, J.-P. Blandeau, N. E. Davis, R. C. Binning and L. Radom, J. Chem. Phys. 103, 6104 (1995).
   Pol./Diff.
   H, Li - Cl  : T. Clark, J. Chandrasekhar and P. v. R. Schleyer, J. Comp. Chem. 4, 294 (1983).
   H - Ne      : M. J. Frisch, J. A. Pople and J. S. Binkley, J. Chem. Phys. 80, 3265 (1984).

----- AuxJ basis set information -----
Your calculation utilizes the auxiliary basis: def2/J
   F. Weigend, Phys. Chem. Chem. Phys. 8, 1057 (2006).

================================================================================
                                        WARNINGS
                       Please study these warnings very carefully!
================================================================================


WARNING: Geometry Optimization
  ===> : Switching off AutoStart
         For restart on a previous wavefunction, please use MOREAD

================================================================================
                                       INPUT FILE
================================================================================
NAME = 4.inp
|  1> ! B3LYP/G OPT FREQ 6-311G* CPCM(Water)
|  2> 
|  3> * xyz 0 1 
|  4> C  -3.31137458071911439106 -0.50096689228381197090 -0.43536659507756925169
|  5> C  -2.91138402134533524901 -1.43020623516490896776 -1.39386406679854291113
|  6> C  -1.58017203185885524164 -1.59099456948998518868 -1.67646902496303606966
|  7> C  -2.37629999641601763471 0.26258213542743957802 0.22869825861759340846
|  8> C  -0.99671838779460575353 0.12299598907752806731 -0.03769209841385934290
|  9> O  -2.78319280126748180848 1.15119696864756737575 1.20886171537726161418
| 10> C  -0.60735479070218445496 -0.82689504260035562311 -1.01269659600928907395
| 11> C  0.77265831187194411456 -0.99531800168630724102 -1.32743651086092917524
| 12> C  1.72848903396178155134 -0.25663890796477684120 -0.72095597716813342171
| 13> C  0.02184054713991767649 0.90211219976728795888 0.62064520566101033516
| 14> C  1.38025426035368248279 0.70931278682404541591 0.26267194721341369235
| 15> N  -0.33039133429614997439 1.79517834912755080978 1.55746054455543081474
| 16> C  0.59768988695273694844 2.51106336903188598342 2.14389799449429840905
| 17> C  1.96138487751517409663 2.40504513919686679913 1.85793110063144562005
| 18> C  2.35038743983233366919 1.49146354915514711692 0.90983684120733210321
| 19> C  -3.67804750574959182785 2.11970897172060990243 0.89231454562746348458
| 20> O  -4.14651243624705045931 2.26307522594072718647 -0.22990156567383401853
| 21> N  -3.96799992610110319191 2.89424015630643172159 1.94037192132762870145
| 22> C  -3.35596808628195208968 2.72802088998273317699 3.24111141977210914789
| 23> C  -4.96386939822996087202 3.93602311782976421739 1.82439025969645252090
| 24> H  -5.74959160993628071168 3.77465317336332040199 2.56268965478311994133
| 25> H  -5.38974813449030243362 3.90250926215986737589 0.82388136440425518980
| 26> H  -4.50592936207385275083 4.91164361408779548412 1.99019893593667118736
| 27> H  -2.40170998948078961988 2.22035575869183476883 3.12938028465470097217
| 28> H  -4.00518380031068499392 2.14642140558547955820 3.89814165482163588194
| 29> H  -3.19713803327477830152 3.71362230862627962225 3.67441294916128979864
| 30> H  -1.26040842606780678636 -2.30641470347692090215 -2.41802931024573153351
| 31> H  -4.35786626223479611753 -0.36150046526976753469 -0.21092260276481189507
| 32> H  -3.65861015134378497748 -2.01649512436162270390 -1.90444329258774702751
| 33> H  1.03190515101233337703 -1.73111083695670497917 -2.07305879473536691648
| 34> H  2.77283070615195814668 -0.38083423345842892793 -0.96538414755359325259
| 35> H  0.23877652341587696228 3.21031993150153027727 2.88753709193760155216
| 36> H  2.67640643362001195982 3.02383380283549119127 2.37523936262598489577
| 37> H  3.39099788968627180452 1.35983690055050843171 0.65092752466484316010
| 38> *
| 39> 
| 40>                          ****END OF INPUT****
================================================================================

                       *****************************
                       * Geometry Optimization Run *
                       *****************************

Geometry optimization settings:
Update method            Update   .... BFGS
Choice of coordinates    CoordSys .... (2022) Redundant Internals
Initial Hessian          InHess   .... Almloef's Model
Max. no of cycles        MaxIter  .... 102

Convergence Tolerances:
Energy Change            TolE     ....  5.0000e-06 Eh
Max. Gradient            TolMAXG  ....  3.0000e-04 Eh/bohr
RMS Gradient             TolRMSG  ....  1.0000e-04 Eh/bohr
Max. Displacement        TolMAXD  ....  4.0000e-03 bohr
RMS Displacement         TolRMSD  ....  2.0000e-03 bohr
Strict Convergence                .... False

------------------------------------------------------------------------------
                        ORCA OPTIMIZATION COORDINATE SETUP
------------------------------------------------------------------------------

The optimization will be done in redundant internal coordinates (2022)
Making redundant internal coordinates   ...  (2022 redundants) done
Evaluating the initial hessian          ...  (Almloef) done
Evaluating the coordinates              ...  done
Calculating the B-matrix                .... done
Calculating the G-matrix                .... done
Diagonalizing the G-matrix              .... done
Small eigenvalue found = 2.933e-03
Small eigenvalue found = 8.229e-03
Small eigenvalue found = 1.393e-02
Small eigenvalue found = 2.455e-02
The first mode is                       ....   77
The number of degrees of freedom        ....   96

    -----------------------------------------------------------------
                    Redundant Internal Coordinates


    -----------------------------------------------------------------
         Definition                    Initial Value    Approx d2E/dq
    -----------------------------------------------------------------
      1. B(C   1,C   0)                  1.3936         0.616527   
      2. B(C   2,C   1)                  1.3703         0.671580   
      3. B(C   3,C   0)                  1.3778         0.653418   
      4. B(C   4,C   3)                  1.4120         0.576325   
      5. B(O   5,C   3)                  1.3842         0.571718   
      6. B(C   6,C   4)                  1.4158         0.568268   
      7. B(C   6,C   2)                  1.4039         0.593786   
      8. B(C   7,C   6)                  1.4254         0.548536   
      9. B(C   8,C   7)                  1.3517         0.719205   
     10. B(C   9,C   4)                  1.4415         0.517119   
     11. B(C  10,C   9)                  1.4180         0.563811   
     12. B(C  10,C   8)                  1.4219         0.555666   
     13. B(N  11,C   9)                  1.3414         0.669069   
     14. B(C  12,N  11)                  1.3106         0.749057   
     15. B(C  13,C  12)                  1.3974         0.608077   
     16. B(C  14,C  13)                  1.3729         0.665320   
     17. B(C  14,C  10)                  1.4042         0.593068   
     18. B(C  15,O   5)                  1.3561         0.633834   
     19. B(O  16,C  15)                  1.2245         1.027855   
     20. B(N  17,C  15)                  1.3351         0.684735   
     21. B(C  18,N  17)                  1.4471         0.453686   
     22. B(C  19,N  17)                  1.4459         0.455774   
     23. B(H  20,C  19)                  1.0902         0.359866   
     24. B(H  21,C  19)                  1.0879         0.362896   
     25. B(H  22,C  19)                  1.0904         0.359532   
     26. B(H  23,C  18)                  1.0867         0.364554   
     27. B(H  24,C  18)                  1.0915         0.358088   
     28. B(H  25,C  18)                  1.0883         0.362362   
     29. B(H  26,C   2)                  1.0789         0.375112   
     30. B(H  27,C   0)                  1.0793         0.374484   
     31. B(H  28,C   1)                  1.0783         0.375888   
     32. B(H  29,C   7)                  1.0791         0.374751   
     33. B(H  30,C   8)                  1.0797         0.373944   
     34. B(H  31,C  12)                  1.0820         0.370806   
     35. B(H  32,C  13)                  1.0779         0.376535   
     36. B(H  33,C  14)                  1.0804         0.373048   
     37. A(C   1,C   0,C   3)          120.4119         0.437747   
     38. A(C   3,C   0,H  27)          119.0900         0.358441   
     39. A(C   1,C   0,H  27)          120.4946         0.354921   
     40. A(C   2,C   1,H  28)          120.7786         0.360348   
     41. A(C   0,C   1,C   2)          119.9268         0.439918   
     42. A(C   0,C   1,H  28)          119.2946         0.355146   
     43. A(C   1,C   2,H  26)          120.4959         0.360222   
     44. A(C   1,C   2,C   6)          120.7837         0.436945   
     45. A(C   6,C   2,H  26)          118.7200         0.352768   
     46. A(C   4,C   3,O   5)          118.9653         0.419494   
     47. A(C   0,C   3,C   4)          121.1566         0.432465   
     48. A(C   0,C   3,O   5)          119.8392         0.429020   
     49. A(C   3,C   4,C   9)          123.4213         0.414751   
     50. A(C   3,C   4,C   6)          117.7069         0.421780   
     51. A(C   6,C   4,C   9)          118.8694         0.413715   
     52. A(C   3,O   5,C  15)          119.1558         0.423908   
     53. A(C   4,C   6,C   7)          119.8397         0.418079   
     54. A(C   2,C   6,C   7)          120.1436         0.421367   
     55. A(C   2,C   6,C   4)          120.0137         0.424036   
     56. A(C   6,C   7,H  29)          117.7556         0.348022   
     57. A(C   6,C   7,C   8)          121.3968         0.436099   
     58. A(C   8,C   7,H  29)          120.8467         0.364400   
     59. A(C   7,C   8,H  30)          121.3005         0.364266   
     60. A(C  10,C   8,H  30)          118.1393         0.348653   
     61. A(C   7,C   8,C  10)          120.5601         0.437116   
     62. A(C   4,C   9,C  10)          119.2184         0.413137   
     63. A(C  10,C   9,N  11)          121.2256         0.429771   
     64. A(C   4,C   9,N  11)          119.5559         0.423168   
     65. A(C   9,C  10,C  14)          118.0203         0.423348   
     66. A(C   8,C  10,C  14)          121.8714         0.422248   
     67. A(C   8,C  10,C   9)          120.1078         0.418454   
     68. A(C   9,N  11,C  12)          119.3550         0.449413   
     69. A(N  11,C  12,H  31)          115.1900         0.364000   
     70. A(N  11,C  12,C  13)          123.9204         0.444625   
     71. A(C  13,C  12,H  31)          120.8895         0.353500   
     72. A(C  12,C  13,H  32)          120.3719         0.354419   
     73. A(C  12,C  13,C  14)          117.9256         0.438083   
     74. A(C  14,C  13,H  32)          121.7021         0.359879   
     75. A(C  10,C  14,H  33)          119.1528         0.352367   
     76. A(C  10,C  14,C  13)          119.5497         0.436113   
     77. A(C  13,C  14,H  33)          121.2975         0.359309   
     78. A(O  16,C  15,N  17)          124.6415         0.478204   
     79. A(O   5,C  15,N  17)          111.9876         0.437864   
     80. A(O   5,C  15,O  16)          123.3673         0.471459   
     81. A(C  18,N  17,C  19)          116.4981         0.383970   
     82. A(C  15,N  17,C  19)          120.3066         0.412772   
     83. A(C  15,N  17,C  18)          123.1703         0.412436   
     84. A(H  24,C  18,H  25)          109.2504         0.290869   
     85. A(H  23,C  18,H  25)          109.6256         0.291689   
     86. A(N  17,C  18,H  25)          108.3956         0.333220   
     87. A(H  23,C  18,H  24)          109.5892         0.291145   
     88. A(N  17,C  18,H  24)          110.5304         0.332565   
     89. A(N  17,C  18,H  23)          109.4294         0.333554   
     90. A(H  21,C  19,H  22)          109.3787         0.291121   
     91. A(H  20,C  19,H  22)          109.3986         0.290738   
     92. A(N  17,C  19,H  22)          110.0724         0.333041   
     93. A(H  20,C  19,H  21)          109.6410         0.291163   
     94. A(N  17,C  19,H  21)          108.7361         0.333556   
     95. A(N  17,C  19,H  20)          109.5993         0.333092   
     96. D(H  28,C   1,C   0,C   3)   -179.8472         0.026284   
     97. D(C   2,C   1,C   0,C   3)      0.2258         0.026284   
     98. D(H  28,C   1,C   0,H  27)     -0.5391         0.026284   
     99. D(C   2,C   1,C   0,H  27)    179.5340         0.026284   
    100. D(C   6,C   2,C   1,C   0)     -0.1332         0.031554   
    101. D(H  26,C   2,C   1,C   0)   -179.8899         0.031554   
    102. D(C   6,C   2,C   1,H  28)    179.9410         0.031554   
    103. D(H  26,C   2,C   1,H  28)      0.1843         0.031554   
    104. D(O   5,C   3,C   0,C   1)   -177.9290         0.029750   
    105. D(C   4,C   3,C   0,H  27)   -179.5386         0.029750   
    106. D(C   4,C   3,C   0,C   1)     -0.2208         0.029750   
    107. D(O   5,C   3,C   0,H  27)      2.7532         0.029750   
    108. D(C   6,C   4,C   3,O   5)    177.8477         0.022807   
    109. D(C   9,C   4,C   3,C   0)    179.5515         0.022807   
    110. D(C   9,C   4,C   3,O   5)     -2.7207         0.022807   
    111. D(C   6,C   4,C   3,C   0)      0.1199         0.022807   
    112. D(C  15,O   5,C   3,C   4)    124.7367         0.023734   
    113. D(C  15,O   5,C   3,C   0)    -57.5049         0.023734   
    114. D(C   7,C   6,C   4,C   9)     -0.1099         0.022146   
    115. D(C   7,C   6,C   4,C   3)    179.3485         0.022146   
    116. D(C   2,C   6,C   4,C   9)   -179.4850         0.022146   
    117. D(C   2,C   6,C   4,C   3)     -0.0267         0.022146   
    118. D(C   7,C   6,C   2,H  26)      0.4230         0.024280   
    119. D(C   7,C   6,C   2,C   1)   -179.3380         0.024280   
    120. D(C   4,C   6,C   2,H  26)    179.7962         0.024280   
    121. D(C   4,C   6,C   2,C   1)      0.0353         0.024280   
    122. D(H  29,C   7,C   6,C   4)    179.7849         0.020580   
    123. D(H  29,C   7,C   6,C   2)     -0.8408         0.020580   
    124. D(C   8,C   7,C   6,C   4)     -0.5486         0.020580   
    125. D(C   8,C   7,C   6,C   2)    178.8258         0.020580   
    126. D(C  10,C   8,C   7,C   6)      0.4725         0.036602   
    127. D(H  30,C   8,C   7,H  29)      0.0747         0.036602   
    128. D(H  30,C   8,C   7,C   6)   -179.5815         0.036602   
    129. D(C  10,C   8,C   7,H  29)   -179.8713         0.036602   
    130. D(N  11,C   9,C   4,C   6)   -179.2458         0.018233   
    131. D(N  11,C   9,C   4,C   3)      1.3288         0.018233   
    132. D(C  10,C   9,C   4,C   6)      0.8193         0.018233   
    133. D(C  10,C   9,C   4,C   3)   -178.6062         0.018233   
    134. D(C  14,C  10,C   9,N  11)     -0.5868         0.021786   
    135. D(C  14,C  10,C   9,C   4)    179.3471         0.021786   
    136. D(C   8,C  10,C   9,N  11)    179.1581         0.021786   
    137. D(C   8,C  10,C   9,C   4)     -0.9080         0.021786   
    138. D(C  14,C  10,C   8,H  30)      0.0526         0.021138   
    139. D(C  14,C  10,C   8,C   7)   -179.9997         0.021138   
    140. D(C   9,C  10,C   8,H  30)   -179.6822         0.021138   
    141. D(C   9,C  10,C   8,C   7)      0.2655         0.021138   
    142. D(C  12,N  11,C   9,C  10)      0.6189         0.033246   
    143. D(C  12,N  11,C   9,C   4)   -179.3147         0.033246   
    144. D(H  31,C  12,N  11,C   9)    179.9517         0.042602   
    145. D(C  13,C  12,N  11,C   9)     -0.1711         0.042602   
    146. D(H  32,C  13,C  12,H  31)     -0.1798         0.025528   
    147. D(H  32,C  13,C  12,N  11)    179.9497         0.025528   
    148. D(C  14,C  13,C  12,H  31)    179.5701         0.025528   
    149. D(C  14,C  13,C  12,N  11)     -0.3004         0.025528   
    150. D(H  33,C  14,C  13,H  32)      0.1463         0.030925   
    151. D(H  33,C  14,C  13,C  12)   -179.6001         0.030925   
    152. D(C  10,C  14,C  13,H  32)   -179.9417         0.030925   
    153. D(C  10,C  14,C  13,C  12)      0.3119         0.030925   
    154. D(H  33,C  14,C  10,C   9)   -179.9804         0.024218   
    155. D(H  33,C  14,C  10,C   8)      0.2795         0.024218   
    156. D(C  13,C  14,C  10,C   9)      0.1057         0.024218   
    157. D(C  13,C  14,C  10,C   8)   -179.6345         0.024218   
    158. D(O  16,C  15,O   5,C   3)     -0.6100         0.029572   
    159. D(N  17,C  15,O   5,C   3)   -179.9459         0.029572   
    160. D(C  19,N  17,C  15,O  16)      4.3553         0.038631   
    161. D(C  19,N  17,C  15,O   5)   -176.3188         0.038631   
    162. D(C  18,N  17,C  15,O  16)   -177.5252         0.038631   
    163. D(C  18,N  17,C  15,O   5)      1.8007         0.038631   
    164. D(H  25,C  18,N  17,C  15)    142.9118         0.017563   
    165. D(H  24,C  18,N  17,C  19)     80.8044         0.017563   
    166. D(H  24,C  18,N  17,C  15)    -97.3816         0.017563   
    167. D(H  23,C  18,N  17,C  19)   -158.4168         0.017563   
    168. D(H  23,C  18,N  17,C  15)     23.3973         0.017563   
    169. D(H  22,C  19,N  17,C  15)   -117.4682         0.017727   
    170. D(H  21,C  19,N  17,C  18)   -175.9094         0.017727   
    171. D(H  21,C  19,N  17,C  15)      2.3318         0.017727   
    172. D(H  20,C  19,N  17,C  18)    -56.0722         0.017727   
    173. D(H  20,C  19,N  17,C  15)    122.1690         0.017727   
    -----------------------------------------------------------------

Number of atoms                         .... 34
Number of degrees of freedom            .... 173


         *************************************************************
         *                GEOMETRY OPTIMIZATION CYCLE   1            *
         *************************************************************
---------------------------------
CARTESIAN COORDINATES (ANGSTROEM)
---------------------------------
  C     -3.311375   -0.500967   -0.435367
  C     -2.911384   -1.430206   -1.393864
  C     -1.580172   -1.590995   -1.676469
  C     -2.376300    0.262582    0.228698
  C     -0.996718    0.122996   -0.037692
  O     -2.783193    1.151197    1.208862
  C     -0.607355   -0.826895   -1.012697
  C      0.772658   -0.995318   -1.327437
  C      1.728489   -0.256639   -0.720956
  C      0.021841    0.902112    0.620645
  C      1.380254    0.709313    0.262672
  N     -0.330391    1.795178    1.557461
  C      0.597690    2.511063    2.143898
  C      1.961385    2.405045    1.857931
  C      2.350387    1.491464    0.909837
  C     -3.678048    2.119709    0.892315
  O     -4.146512    2.263075   -0.229902
  N     -3.968000    2.894240    1.940372
  C     -3.355968    2.728021    3.241111
  C     -4.963869    3.936023    1.824390
  H     -5.749592    3.774653    2.562690
  H     -5.389748    3.902509    0.823881
  H     -4.505929    4.911644    1.990199
  H     -2.401710    2.220356    3.129380
  H     -4.005184    2.146421    3.898142
  H     -3.197138    3.713622    3.674413
  H     -1.260408   -2.306415   -2.418029
  H     -4.357866   -0.361500   -0.210923
  H     -3.658610   -2.016495   -1.904443
  H      1.031905   -1.731111   -2.073059
  H      2.772831   -0.380834   -0.965384
  H      0.238777    3.210320    2.887537
  H      2.676406    3.023834    2.375239
  H      3.390998    1.359837    0.650928

----------------------------
CARTESIAN COORDINATES (A.U.)
----------------------------
  NO LB      ZA    FRAG     MASS         X           Y           Z
   0 C     6.0000    0    12.011   -6.257591   -0.946690   -0.822724
   1 C     6.0000    0    12.011   -5.501718   -2.702698   -2.634021
   2 C     6.0000    0    12.011   -2.986092   -3.006544   -3.168067
   3 C     6.0000    0    12.011   -4.490556    0.496208    0.432177
   4 C     6.0000    0    12.011   -1.883525    0.232429   -0.071228
   5 O     8.0000    0    15.999   -5.259472    2.175447    2.284418
   6 C     6.0000    0    12.011   -1.147734   -1.562605   -1.913719
   7 C     6.0000    0    12.011    1.460113   -1.880878   -2.508491
   8 C     6.0000    0    12.011    3.266371   -0.484977   -1.362409
   9 C     6.0000    0    12.011    0.041273    1.704745    1.172849
  10 C     6.0000    0    12.011    2.608303    1.340407    0.496378
  11 N     7.0000    0    14.007   -0.624349    3.392395    2.943174
  12 C     6.0000    0    12.011    1.129470    4.745222    4.051380
  13 C     6.0000    0    12.011    3.706480    4.544877    3.510981
  14 C     6.0000    0    12.011    4.441589    2.818458    1.719342
  15 C     6.0000    0    12.011   -6.950502    4.005669    1.686230
  16 O     8.0000    0    15.999   -7.835773    4.276592   -0.434451
  17 N     7.0000    0    14.007   -7.498433    5.469321    3.666772
  18 C     6.0000    0    12.011   -6.341861    5.155212    6.124813
  19 C     6.0000    0    12.011   -9.380354    7.438006    3.447598
  20 H     1.0000    0     1.008  -10.865154    7.133061    4.842782
  21 H     1.0000    0     1.008  -10.185148    7.374674    1.556910
  22 H     1.0000    0     1.008   -8.514972    9.281661    3.760931
  23 H     1.0000    0     1.008   -4.538574    4.195864    5.913672
  24 H     1.0000    0     1.008   -7.568700    4.056149    7.366420
  25 H     1.0000    0     1.008   -6.041715    7.017729    6.943634
  26 H     1.0000    0     1.008   -2.381827   -4.358492   -4.569413
  27 H     1.0000    0     1.008   -8.235174   -0.683137   -0.398586
  28 H     1.0000    0     1.008   -6.913771   -3.810624   -3.598876
  29 H     1.0000    0     1.008    1.950018   -3.271325   -3.917513
  30 H     1.0000    0     1.008    5.239891   -0.719672   -1.824312
  31 H     1.0000    0     1.008    0.451222    6.066625    5.456654
  32 H     1.0000    0     1.008    5.057675    5.714218    4.488552
  33 H     1.0000    0     1.008    6.408057    2.569719    1.230075

--------------------------------
INTERNAL COORDINATES (ANGSTROEM)
--------------------------------
 C      0   0   0     0.000000000000     0.00000000     0.00000000
 C      1   0   0     1.393626781905     0.00000000     0.00000000
 C      2   1   0     1.370344413564   119.92675268     0.00000000
 C      1   2   3     1.377807579396   120.41185918     0.22583352
 C      4   1   2     1.411982127868   121.15662857   359.77921517
 O      4   1   2     1.384167070272   119.83916576   182.07102168
 C      3   2   1     1.403857296567   120.78372654   359.86681943
 C      7   3   2     1.425434554943   120.14357769   180.66201696
 C      8   7   3     1.351694422028   121.39681063   178.82575046
 C      5   4   1     1.441489639099   123.42129523   179.55153209
 C     10   5   4     1.417957786269   119.21839910   181.39384568
 N     10   5   4     1.341364016448   119.55592673     1.32881930
 C     12  10   5     1.310623896337   119.35497103   180.68528479
 C     13  12  10     1.397383611156   123.92043217   359.82885456
 C     14  13  12     1.372893673926   117.92556777   359.69961930
 C      6   4   1     1.356090908791   119.15581072   302.49513057
 O     16   6   4     1.224492660010   123.36728022   359.39000967
 N     16   6   4     1.335063753056   111.98755107   180.05409516
 C     18  16   6     1.447112663293   123.17030889     1.80069863
 C     18  16   6     1.445862887785   120.30664876   183.68121473
 H     20  18  16     1.090176889193   109.59925984   122.16898747
 H     20  18  16     1.087894262362   108.73612355     2.33180759
 H     20  18  16     1.090429707294   110.07243384   242.53179426
 H     19  18  16     1.086653692486   109.42936682    23.39731598
 H     19  18  16     1.091525415811   110.53035892   262.61843042
 H     19  18  16     1.088295620473   108.39555831   142.91175178
 H      3   2   1     1.078882008568   120.49586156   180.11011608
 H      1   2   3     1.079338144156   120.49456466   179.53399506
 H      2   1   3     1.078319385319   119.29460502   179.92695241
 H      8   7   3     1.079144388045   117.75564580   359.15924169
 H      9   8   7     1.079731048746   121.30053895   180.41845378
 H     13  12  10     1.082024791735   115.18995452   179.95170285
 H     14  13  12     1.077851137157   120.37185475   179.94970697
 H     15  14  13     1.080384060027   121.29748013   180.39991426

---------------------------
INTERNAL COORDINATES (A.U.)
---------------------------
 C      0   0   0     0.000000000000     0.00000000     0.00000000
 C      1   0   0     2.633572950698     0.00000000     0.00000000
 C      2   1   0     2.589575650785   119.92675268     0.00000000
 C      1   2   3     2.603678990300   120.41185918     0.22583352
 C      4   1   2     2.668259527662   121.15662857   359.77921517
 O      4   1   2     2.615696686406   119.83916576   182.07102168
 C      3   2   1     2.652905821618   120.78372654   359.86681943
 C      7   3   2     2.693680930669   120.14357769   180.66201696
 C      8   7   3     2.554332274381   121.39681063   178.82575046
 C      5   4   1     2.724020642783   123.42129523   179.55153209
 C     10   5   4     2.679551885510   119.21839910   181.39384568
 N     10   5   4     2.534810636983   119.55592673     1.32881930
 C     12  10   5     2.476720228649   119.35497103   180.68528479
 C     13  12  10     2.640672329115   123.92043217   359.82885456
 C     14  13  12     2.594393054713   117.92556777   359.69961930
 C      6   4   1     2.562640430316   119.15581072   302.49513057
 O     16   6   4     2.313955780416   123.36728022   359.39000967
 N     16   6   4     2.522904864600   111.98755107   180.05409516
 C     18  16   6     2.734646618553   123.17030889     1.80069863
 C     18  16   6     2.732284885114   120.30664876   183.68121473
 H     20  18  16     2.060135758105   109.59925984   122.16898747
 H     20  18  16     2.055822218528   108.73612355     2.33180759
 H     20  18  16     2.060613515078   110.07243384   242.53179426
 H     19  18  16     2.053477881213   109.42936682    23.39731598
 H     19  18  16     2.062684104098   110.53035892   262.61843042
 H     19  18  16     2.056580675440   108.39555831   142.91175178
 H      3   2   1     2.038791527008   120.49586156   180.11011608
 H      1   2   3     2.039653498350   120.49456466   179.53399506
 H      2   1   3     2.037728323152   119.29460502   179.92695241
 H      8   7   3     2.039287352364   117.75564580   359.15924169
 H      9   8   7     2.040395980421   121.30053895   180.41845378
 H     13  12  10     2.044730526492   115.18995452   179.95170285
 H     14  13  12     2.036843462362   120.37185475   179.94970697
 H     15  14  13     2.041629992905   121.29748013   180.39991426

---------------------
BASIS SET INFORMATION
---------------------
There are 4 groups of distinct atoms

 Group   1 Type C   : 11s5p1d contracted to 4s3p1d pattern {6311/311/1}
 Group   2 Type O   : 11s5p1d contracted to 4s3p1d pattern {6311/311/1}
 Group   3 Type N   : 11s5p1d contracted to 4s3p1d pattern {6311/311/1}
 Group   4 Type H   : 5s contracted to 3s pattern {311}

Atom   0C    basis set group =>   1
Atom   1C    basis set group =>   1
Atom   2C    basis set group =>   1
Atom   3C    basis set group =>   1
Atom   4C    basis set group =>   1
Atom   5O    basis set group =>   2
Atom   6C    basis set group =>   1
Atom   7C    basis set group =>   1
Atom   8C    basis set group =>   1
Atom   9C    basis set group =>   1
Atom  10C    basis set group =>   1
Atom  11N    basis set group =>   3
Atom  12C    basis set group =>   1
Atom  13C    basis set group =>   1
Atom  14C    basis set group =>   1
Atom  15C    basis set group =>   1
Atom  16O    basis set group =>   2
Atom  17N    basis set group =>   3
Atom  18C    basis set group =>   1
Atom  19C    basis set group =>   1
Atom  20H    basis set group =>   4
Atom  21H    basis set group =>   4
Atom  22H    basis set group =>   4
Atom  23H    basis set group =>   4
Atom  24H    basis set group =>   4
Atom  25H    basis set group =>   4
Atom  26H    basis set group =>   4
Atom  27H    basis set group =>   4
Atom  28H    basis set group =>   4
Atom  29H    basis set group =>   4
Atom  30H    basis set group =>   4
Atom  31H    basis set group =>   4
Atom  32H    basis set group =>   4
Atom  33H    basis set group =>   4
---------------------------------
AUXILIARY/J BASIS SET INFORMATION
---------------------------------
There are 4 groups of distinct atoms

 Group   1 Type C   : 12s5p4d2f1g contracted to 6s4p3d1f1g pattern {711111/2111/211/2/1}
 Group   2 Type O   : 12s5p4d2f1g contracted to 6s4p3d1f1g pattern {711111/2111/211/2/1}
 Group   3 Type N   : 12s5p4d2f1g contracted to 6s4p3d1f1g pattern {711111/2111/211/2/1}
 Group   4 Type H   : 5s2p1d contracted to 3s1p1d pattern {311/2/1}

Atom   0C    basis set group =>   1
Atom   1C    basis set group =>   1
Atom   2C    basis set group =>   1
Atom   3C    basis set group =>   1
Atom   4C    basis set group =>   1
Atom   5O    basis set group =>   2
Atom   6C    basis set group =>   1
Atom   7C    basis set group =>   1
Atom   8C    basis set group =>   1
Atom   9C    basis set group =>   1
Atom  10C    basis set group =>   1
Atom  11N    basis set group =>   3
Atom  12C    basis set group =>   1
Atom  13C    basis set group =>   1
Atom  14C    basis set group =>   1
Atom  15C    basis set group =>   1
Atom  16O    basis set group =>   2
Atom  17N    basis set group =>   3
Atom  18C    basis set group =>   1
Atom  19C    basis set group =>   1
Atom  20H    basis set group =>   4
Atom  21H    basis set group =>   4
Atom  22H    basis set group =>   4
Atom  23H    basis set group =>   4
Atom  24H    basis set group =>   4
Atom  25H    basis set group =>   4
Atom  26H    basis set group =>   4
Atom  27H    basis set group =>   4
Atom  28H    basis set group =>   4
Atom  29H    basis set group =>   4
Atom  30H    basis set group =>   4
Atom  31H    basis set group =>   4
Atom  32H    basis set group =>   4
Atom  33H    basis set group =>   4
------------------------------------------------------------------------------
                             ORCA STARTUP CALCULATIONS
                           -- RI-GTO INTEGRALS CHOSEN --
------------------------------------------------------------------------------
------------------------------------------------------------------------------
                   ___                                                        
                  /   \      - P O W E R E D   B Y -                         
                 /     \                                                     
                 |  |  |   _    _      __       _____    __    __             
                 |  |  |  | |  | |    /  \     |  _  \  |  |  /  |          
                  \  \/   | |  | |   /    \    | | | |  |  | /  /          
                 / \  \   | |__| |  /  /\  \   | |_| |  |  |/  /          
                |  |  |   |  __  | /  /__\  \  |    /   |      \           
                |  |  |   | |  | | |   __   |  |    \   |  |\   \          
                \     /   | |  | | |  |  |  |  | |\  \  |  | \   \       
                 \___/    |_|  |_| |__|  |__|  |_| \__\ |__|  \__/        
                                                                              
                      - O R C A' S   B I G   F R I E N D -                    
                                      &                                       
                       - I N T E G R A L  F E E D E R -                       
                                                                              
 v1 FN, 2020, v2 2021, v3 2022-2024                                           
------------------------------------------------------------------------------


----------------------
SHARK INTEGRAL PACKAGE
----------------------

Number of atoms                             ...     34
Number of basis functions                   ...    402
Number of shells                            ...    202
Maximum angular momentum                    ...      2
Integral batch strategy                     ... SHARK/LIBINT Hybrid
RI-J (if used) integral strategy            ... SPLIT-RIJ (Revised 2003 algorithm where possible)
Printlevel                                  ...      1
Contraction scheme used                     ... SEGMENTED contraction
Prescreening option                         ... SCHWARTZ
   Thresh                                   ... 2.500e-11
   Tcut                                     ... 2.500e-12
   Tpresel                                  ... 2.500e-12 
Coulomb Range Separation                    ... NOT USED
Exchange Range Separation                   ... NOT USED
Multipole approximations                    ... NOT USED
Finite Nucleus Model                        ... NOT USED
CABS basis                                  ... NOT available
Auxiliary Coulomb fitting basis             ... AVAILABLE
   # of basis functions in Aux-J            ...   1134
   # of shells in Aux-J                     ...    370
   Maximum angular momentum in Aux-J        ...      4
Auxiliary J/K fitting basis                 ... NOT available
Auxiliary Correlation fitting basis         ... NOT available
Auxiliary 'external' fitting basis          ... NOT available

Checking pre-screening integrals            ... done (  0.0 sec) Dimension = 202
Check shell pair data                       ... done (  0.0 sec)
Shell pair information
Shell pair cut-off parameter TPreSel        ...   2.5e-12
Total number of shell pairs                 ...     20503
Shell pairs after pre-screening             ...     14885
Total number of primitive shell pairs       ...     84717
Primitive shell pairs kept                  ...     37282
          la=0 lb=0:   5091 shell pairs
          la=1 lb=0:   5525 shell pairs
          la=1 lb=1:   1513 shell pairs
          la=2 lb=0:   1660 shell pairs
          la=2 lb=1:    941 shell pairs
          la=2 lb=2:    155 shell pairs

Calculating one electron integrals          ... done (  0.1 sec)
Calculating RI/J V-Matrix + Cholesky decomp.... done (  0.2 sec)
Calculating Nuclear repulsion               ... done (  0.0 sec) ENN=   1505.258821528887 Eh

Diagonalization of the overlap matrix:
Smallest eigenvalue                        ... 7.751e-05
Time for diagonalization                   ...    0.024 sec
Threshold for overlap eigenvalues          ... 1.000e-07
Number of eigenvalues below threshold      ... 0
Time for construction of square roots      ...    0.021 sec
Total time needed                          ...    0.062 sec

-------------------
DFT GRID GENERATION
-------------------

General Integration Accuracy     IntAcc      ... 4.388
Radial Grid Type                 RadialGrid  ... OptM3 with GC (2021)
Angular Grid (max. ang.)         AngularGrid ... 4 (Lebedev-302)
Angular grid pruning method      GridPruning ... 4 (adaptive)
Weight generation scheme         WeightScheme... mBecke (2022)
Basis function cutoff            BFCut       ... 1.0000e-11
Integration weight cutoff        WCut        ... 1.0000e-14
Partially contracted basis set               ... off
Rotationally invariant grid construction     ... off
Angular grids for H and He will be reduced by one unit

Total number of grid points                  ...   164448
Total number of batches                      ...     2589
Average number of points per batch           ...       63
Average number of grid points per atom       ...     4837

--------------------
COSX GRID GENERATION
--------------------

GRIDX 1
-------
General Integration Accuracy     IntAcc      ... 3.816
Radial Grid Type                 RadialGrid  ... OptM3 with GC (2021)
Angular Grid (max. ang.)         AngularGrid ... 1 (Lebedev-50)
Angular grid pruning method      GridPruning ... 4 (adaptive)
Weight generation scheme         WeightScheme... mBecke (2022)
Basis function cutoff            BFCut       ... 1.0000e-11
Integration weight cutoff        WCut        ... 1.0000e-14
Partially contracted basis set               ... on
Rotationally invariant grid construction     ... off
Angular grids for H and He will be reduced by one unit

Total number of grid points                  ...    20914
Total number of batches                      ...      179
Average number of points per batch           ...      116
Average number of grid points per atom       ...      615
UseSFitting                                  ... on

GRIDX 2
-------
General Integration Accuracy     IntAcc      ... 4.020
Radial Grid Type                 RadialGrid  ... OptM3 with GC (2021)
Angular Grid (max. ang.)         AngularGrid ... 2 (Lebedev-110)
Angular grid pruning method      GridPruning ... 4 (adaptive)
Weight generation scheme         WeightScheme... mBecke (2022)
Basis function cutoff            BFCut       ... 1.0000e-11
Integration weight cutoff        WCut        ... 1.0000e-14
Partially contracted basis set               ... on
Rotationally invariant grid construction     ... off
Angular grids for H and He will be reduced by one unit

Total number of grid points                  ...    45683
Total number of batches                      ...      371
Average number of points per batch           ...      123
Average number of grid points per atom       ...     1344
UseSFitting                                  ... on

GRIDX 3
-------
General Integration Accuracy     IntAcc      ... 4.338
Radial Grid Type                 RadialGrid  ... OptM3 with GC (2021)
Angular Grid (max. ang.)         AngularGrid ... 3 (Lebedev-194)
Angular grid pruning method      GridPruning ... 4 (adaptive)
Weight generation scheme         WeightScheme... mBecke (2022)
Basis function cutoff            BFCut       ... 1.0000e-11
Integration weight cutoff        WCut        ... 1.0000e-14
Partially contracted basis set               ... on
Rotationally invariant grid construction     ... off
Angular grids for H and He will be reduced by one unit

Total number of grid points                  ...   100040
Total number of batches                      ...      798
Average number of points per batch           ...      125
Average number of grid points per atom       ...     2942
UseSFitting                                  ... on
Initializing property integral containers    ... done (  0.0 sec)

SHARK setup successfully completed in   6.0 seconds

Maximum memory used throughout the entire STARTUP-calculation: 79.9 MB
-------------------------------------------------------------------------------
                                 ORCA GUESS
                   Start orbitals & Density for SCF / CASSCF
-------------------------------------------------------------------------------

------------
SCF SETTINGS
------------
Hamiltonian:
 Density Functional     Method          .... DFT(GTOs)
 Exchange Functional    Exchange        .... B88
   X-Alpha parameter    XAlpha          ....  0.666667
   Becke's b parameter  XBeta           ....  0.004200
 Correlation Functional Correlation     .... LYP
 LDA part of GGA corr.  LDAOpt          .... VWN-3
 Gradients option       PostSCFGGA      .... off
 Hybrid DFT is turned on
   Fraction HF Exchange ScalHFX         ....  0.200000
   Scaling of DF-GGA-X  ScalDFX         ....  0.720000
   Scaling of DF-GGA-C  ScalDFC         ....  0.810000
   Scaling of DF-LDA-C  ScalLDAC        ....  1.000000
   Perturbative correction              ....  0.000000
   NL short-range parameter             ....  4.800000
 RI-approximation to the Coulomb term is turned on
   Number of AuxJ basis functions       .... 1134
   RIJ-COSX (HFX calculated with COS-X)).... on


General Settings:
 Integral files         IntName         .... 4
 Hartree-Fock type      HFTyp           .... RHF
 Total Charge           Charge          ....    0
 Multiplicity           Mult            ....    1
 Number of Electrons    NEL             ....  140
 Basis Dimension        Dim             ....  402
 Nuclear Repulsion      ENuc            ....   1505.2588215289 Eh

Convergence Acceleration:
 AO-DIIS                CNVDIIS         .... on
   Start iteration      DIISMaxIt       ....    12
   Startup error        DIISStart       ....  0.200000
   # of expansion vecs  DIISMaxEq       ....     5
   Bias factor          DIISBfac        ....   1.050
   Max. coefficient     DIISMaxC        ....  10.000
 MO-DIIS                CNVKDIIS        .... off
 Trust-Rad. Augm. Hess. CNVTRAH         .... auto
   Auto Start mean grad. ratio tolernc. ....  1.125000
   Auto Start start iteration           ....    50
   Auto Start num. interpolation iter.  ....    10
   Max. Number of Micro iterations      ....    24
   Max. Number of Macro iterations      .... Maxiter - #DIIS iter
   Number of Davidson start vectors     ....     2
   Converg. threshold    (grad. norm)   ....   1.000e-05
   Grad. Scal. Fac. for Micro threshold ....   0.100
   Minimum threshold for Micro iter.    ....   1.000e-02
   NR start threshold (gradient norm)   ....   1.000e-04
   Initial trust radius                 ....   0.400
   Minimum AH scaling param. (alpha)    ....   1.000
   Maximum AH scaling param. (alpha)    .... 1000.000
   Quad. conv. algorithm                .... NR
   White noise on init. David. guess    .... on
   Maximum white noise                  ....   0.010
   Pseudo random numbers                .... off
   Inactive MOs                         .... canonical
   Orbital update algorithm             .... Taylor
   Preconditioner                       .... Diag
   Full preconditioner red. dimension   ....   250
 SOSCF                  CNVSOSCF        .... on
   Start iteration      SOSCFMaxIt      ....   150
   Startup grad/error   SOSCFStart      ....  0.003300
   Hessian update       SOSCFHessUp     .... L-BFGS
 Level Shifting         CNVShift        .... on
   Level shift para.    LevelShift      ....    0.2500
   Turn off err/grad.   ShiftErr        ....    0.0010
 Zerner damping         CNVZerner       .... off
 Static damping         CNVDamp         .... on
   Fraction old density DampFac         ....    0.7000
   Max. Damping (<1)    DampMax         ....    0.9800
   Min. Damping (>=0)   DampMin         ....    0.0000
   Turn off err/grad.   DampErr         ....    0.1000

SCF Procedure:
 Maximum # iterations   MaxIter         ....   125
 SCF integral mode      SCFMode         .... Direct
   Integral package                     .... SHARK and LIBINT hybrid scheme
 Reset frequency        DirectResetFreq ....    20
 Integral Threshold     Thresh          ....  2.500e-11 Eh
 Primitive CutOff       TCut            ....  2.500e-12 Eh

Convergence Tolerance:
 Convergence Check Mode ConvCheckMode   .... Total+1el-Energy
 Convergence forced     ConvForced      .... 0
 Energy Change          TolE            ....  1.000e-08 Eh
 1-El. energy change                    ....  1.000e-05 Eh
 Orbital Gradient       TolG            ....  1.000e-05
 Orbital Rotation angle TolX            ....  1.000e-05
 DIIS Error             TolErr          ....  5.000e-07

------------------------------
INITIAL GUESS: MODEL POTENTIAL
------------------------------
Loading Hartree-Fock densities                     ... done
Calculating cut-offs                               ... done
Initializing the effective Hamiltonian             ... done
Setting up the integral package (SHARK)            ... done
Starting the Coulomb interaction                   ... done (   1.0 sec)
Making the grid                                    ... done (   0.6 sec)
Mapping shells                                     ... done
Starting the XC term evaluation                    ... done (   0.6 sec)
  promolecular density results
     # of electrons  =    139.986489571
     EX              =   -116.098998043
     EC              =     -4.791926562
     EX+EC           =   -120.890924604
Transforming the Hamiltonian                       ... done (   0.0 sec)
Diagonalizing the Hamiltonian                      ... done (   0.0 sec)
Back transforming the eigenvectors                 ... done (   0.0 sec)
Now organizing SCF variables                       ... done
                      ------------------
                      INITIAL GUESS DONE (   2.4 sec)
                      ------------------
             **** ENERGY FILE WAS UPDATED (4.en.tmp) ****
Finished Guess after   2.8 sec
Maximum memory used throughout the entire GUESS-calculation: 47.6 MB

-------------------------------------------------------------------------------------------
                                      ORCA LEAN-SCF
                              memory conserving SCF solver
-------------------------------------------------------------------------------------------

--------------------
CPCM SOLVATION MODEL
--------------------
CPCM parameters:
  Epsilon                                         ...      80.1510
  Refrac                                          ...       1.3328
  Rsolv                                           ...       1.3000
  Surface type                                    ... GAUSSIAN VDW
  Discretization scheme                           ... Constant charge density
    Threshold for H atoms                         ...       5.0000 (charges/Ang^2)
    Threshold for non-H atoms                     ...       5.0000 (charges/Ang^2)
  Epsilon function type                           ...         CPCM
Solvent:                                          ... WATER
Radii:
  Scheme                                          ... Element-dependent radii
  Radius for C  used is    3.8550 Bohr (=   2.0400 Ang.)
  Radius for O  used is    3.4469 Bohr (=   1.8240 Ang.)
  Radius for N  used is    3.5149 Bohr (=   1.8600 Ang.)
  Radius for H  used is    2.4944 Bohr (=   1.3200 Ang.)
Calculating surface                               ...        done! (  0.0s)
Cavity surface points                             ...         2978
Cavity Volume                                     ...    2102.5629
Cavity Surface-area                               ...    1063.9673
Calculating surface distance matrix               ...        done! (  0.0s)
Performing Cholesky decomposition & store         ...        done! (  0.9s)
Overall time for CPCM initialization              ...                 0.9s

----------------------------------------D-I-I-S--------------------------------------------
Iteration    Energy (Eh)           Delta-E    RMSDP     MaxDP     DIISErr   Damp  Time(sec)
-------------------------------------------------------------------------------------------
               ***  Starting incremental Fock matrix formation  ***
    1    -877.8321791898022184     0.00e+00  1.94e-03  7.59e-02  3.52e-01  0.700  27.5
    2    -878.0544752369848993    -2.22e-01  1.45e-03  4.74e-02  1.36e-01  0.700  14.9
                               ***Turning on AO-DIIS***
    3    -878.1462784388179443    -9.18e-02  6.41e-04  1.87e-02  4.00e-02  0.700  14.9
    4    -878.2014917711869657    -5.52e-02  1.01e-03  2.55e-02  2.09e-02  0.000  14.0
    5    -878.3211540014260663    -1.20e-01  2.37e-04  6.47e-03  5.19e-03  0.000  14.5
                              *** Initializing SOSCF ***
---------------------------------------S-O-S-C-F--------------------------------------
Iteration    Energy (Eh)           Delta-E    RMSDP     MaxDP     MaxGrad    Time(sec)
--------------------------------------------------------------------------------------
    6    -878.3217366190835946    -5.83e-04  6.60e-05  1.65e-03  1.93e-03    13.4
               *** Restarting incremental Fock matrix formation ***
    7    -878.3217490730842201    -1.25e-05  3.93e-05  1.58e-03  3.54e-04    27.2
    8    -878.3217378128958899     1.13e-05  1.98e-05  9.96e-04  7.01e-04    18.4
    9    -878.3217568239058437    -1.90e-05  3.05e-06  1.01e-04  2.29e-05    16.7
   10    -878.3217567592530486     6.47e-08  1.65e-06  6.88e-05  3.83e-05    14.2
   11    -878.3217568741249579    -1.15e-07  5.23e-07  1.95e-05  4.19e-06    12.8
   12    -878.3217568645743540     9.55e-09  2.70e-07  1.24e-05  5.70e-06    11.2
                 **** Energy Check signals convergence ****

               *****************************************************
               *                     SUCCESS                       *
               *           SCF CONVERGED AFTER  12 CYCLES          *
               *****************************************************

Recomputing exchange energy using gridx3       ... done (   40.836 sec)
Old exchange energy                            :    -23.582941326 Eh
New exchange energy                            :    -23.582959821 Eh
Exchange energy change after final integration :     -0.000018495 Eh
Total energy after final integration           :   -878.321775360 Eh
             **** ENERGY FILE WAS UPDATED (4.en.tmp) ****

----------------
TOTAL SCF ENERGY
----------------

Total Energy       :       -878.32177535985511 Eh          -23900.35058 eV

Components:
Nuclear Repulsion  :       1505.25882152888721 Eh           40960.17491 eV
Electronic Energy  :      -2383.55967169867381 Eh          -64859.95608 eV
One Electron Energy:      -4183.54924443176515 Eh         -113840.16246 eV
Two Electron Energy:       1799.98957273309156 Eh           48980.20638 eV
CPCM Dielectric    :         -0.02090669478794 Eh              -0.56890 eV

Virial components:
Potential Energy   :      -1753.88194400483326 Eh          -47725.55402 eV
Kinetic Energy     :        875.56016864497826 Eh           23825.20344 eV
Virial Ratio       :          2.00315410272620

DFT components:
N(Alpha)           :       70.000071499142 electrons
N(Beta)            :       70.000071499142 electrons
N(Total)           :      140.000142998284 electrons
E(X)               :      -93.741616011270 Eh       
E(C)               :       -6.163899991968 Eh       
E(XC)              :      -99.905516003238 Eh       

CPCM Solvation Model Properties:
Surface-charge          :         -0.02778698531982
Corrected charge        :          0.00000000000000
Outlying charge corr.   :          0.00004339963009 Eh               0.00118 eV
Free-energy (cav+disp)  :  This term is not implemented in the current solvation scheme

---------------
SCF CONVERGENCE
---------------

  Last Energy change         ...   -9.5506e-09  Tolerance :   1.0000e-08
  Last MAX-Density change    ...    1.2394e-05  Tolerance :   1.0000e-07
  Last RMS-Density change    ...    2.7023e-07  Tolerance :   5.0000e-09
  Last DIIS Error            ...    1.9272e-03  Tolerance :   5.0000e-07
  Last Orbital Gradient      ...    5.6981e-06  Tolerance :   1.0000e-05
  Last Orbital Rotation      ...    9.5391e-06  Tolerance :   1.0000e-05


----------------
ORBITAL ENERGIES
----------------

  NO   OCC          E(Eh)            E(eV) 
   0   2.0000     -19.167532      -521.5751 
   1   2.0000     -19.085032      -519.3301 
   2   2.0000     -14.343385      -390.3034 
   3   2.0000     -14.306203      -389.2916 
   4   2.0000     -10.316928      -280.7379 
   5   2.0000     -10.245683      -278.7992 
   6   2.0000     -10.220071      -278.1023 
   7   2.0000     -10.207085      -277.7489 
   8   2.0000     -10.194797      -277.4145 
   9   2.0000     -10.193160      -277.3700 
  10   2.0000     -10.192459      -277.3509 
  11   2.0000     -10.192281      -277.3461 
  12   2.0000     -10.190554      -277.2991 
  13   2.0000     -10.189684      -277.2754 
  14   2.0000     -10.180458      -277.0243 
  15   2.0000     -10.180322      -277.0206 
  16   2.0000     -10.179711      -277.0040 
  17   2.0000     -10.179685      -277.0033 
  18   2.0000     -10.178235      -276.9639 
  19   2.0000     -10.176059      -276.9046 
  20   2.0000      -1.122259       -30.5382 
  21   2.0000      -1.021931       -27.8081 
  22   2.0000      -0.960144       -26.1269 
  23   2.0000      -0.950508       -25.8646 
  24   2.0000      -0.885113       -24.0852 
  25   2.0000      -0.841648       -22.9024 
  26   2.0000      -0.809619       -22.0308 
  27   2.0000      -0.787300       -21.4235 
  28   2.0000      -0.754149       -20.5214 
  29   2.0000      -0.745685       -20.2911 
  30   2.0000      -0.723277       -19.6814 
  31   2.0000      -0.708925       -19.2908 
  32   2.0000      -0.656423       -17.8622 
  33   2.0000      -0.650626       -17.7044 
  34   2.0000      -0.640898       -17.4397 
  35   2.0000      -0.616029       -16.7630 
  36   2.0000      -0.580142       -15.7865 
  37   2.0000      -0.546786       -14.8788 
  38   2.0000      -0.537302       -14.6207 
  39   2.0000      -0.530147       -14.4260 
  40   2.0000      -0.520718       -14.1695 
  41   2.0000      -0.497124       -13.5274 
  42   2.0000      -0.492676       -13.4064 
  43   2.0000      -0.485280       -13.2051 
  44   2.0000      -0.479598       -13.0505 
  45   2.0000      -0.466993       -12.7075 
  46   2.0000      -0.446724       -12.1560 
  47   2.0000      -0.446118       -12.1395 
  48   2.0000      -0.439194       -11.9511 
  49   2.0000      -0.430214       -11.7067 
  50   2.0000      -0.422601       -11.4996 
  51   2.0000      -0.413163       -11.2427 
  52   2.0000      -0.408875       -11.1261 
  53   2.0000      -0.407842       -11.0980 
  54   2.0000      -0.403565       -10.9816 
  55   2.0000      -0.402453       -10.9513 
  56   2.0000      -0.386243       -10.5102 
  57   2.0000      -0.385481       -10.4895 
  58   2.0000      -0.372717       -10.1421 
  59   2.0000      -0.363572        -9.8933 
  60   2.0000      -0.356152        -9.6914 
  61   2.0000      -0.339177        -9.2295 
  62   2.0000      -0.323007        -8.7895 
  63   2.0000      -0.308952        -8.4070 
  64   2.0000      -0.283332        -7.7099 
  65   2.0000      -0.280173        -7.6239 
  66   2.0000      -0.254111        -6.9147 
  67   2.0000      -0.249295        -6.7837 
  68   2.0000      -0.244666        -6.6577 
  69   2.0000      -0.226342        -6.1591 
  70   0.0000      -0.058658        -1.5962 
  71   0.0000      -0.050940        -1.3862 
  72   0.0000      -0.011334        -0.3084 
  73   0.0000       0.015766         0.4290 
  74   0.0000       0.046901         1.2762 
  75   0.0000       0.048184         1.3112 
  76   0.0000       0.058868         1.6019 
  77   0.0000       0.063528         1.7287 
  78   0.0000       0.064777         1.7627 
  79   0.0000       0.079021         2.1503 
  80   0.0000       0.088021         2.3952 
*Only the first 10 virtual orbitals were printed.

                    ********************************
                    * MULLIKEN POPULATION ANALYSIS *
                    ********************************

-----------------------
MULLIKEN ATOMIC CHARGES
-----------------------
   0 C :   -0.207942
   1 C :   -0.222174
   2 C :   -0.226827
   3 C :    0.198855
   4 C :    0.013215
   5 O :   -0.340101
   6 C :    0.007050
   7 C :   -0.228313
   8 C :   -0.232950
   9 C :    0.105104
  10 C :   -0.009205
  11 N :   -0.337023
  12 C :   -0.050536
  13 C :   -0.290908
  14 C :   -0.105314
  15 C :    0.529920
  16 O :   -0.467477
  17 N :   -0.324673
  18 C :   -0.532525
  19 C :   -0.524853
  20 H :    0.233912
  21 H :    0.233011
  22 H :    0.236312
  23 H :    0.259884
  24 H :    0.227538
  25 H :    0.230063
  26 H :    0.226525
  27 H :    0.230992
  28 H :    0.226896
  29 H :    0.228984
  30 H :    0.227459
  31 H :    0.220303
  32 H :    0.228994
  33 H :    0.235801
Sum of atomic charges:   -0.0000000

--------------------------------
MULLIKEN REDUCED ORBITAL CHARGES
--------------------------------
  0 C s       :     3.157575  s :     3.157575
      pz      :     0.996819  p :     2.991489
      px      :     1.026091
      py      :     0.968579
      dz2     :     0.011491  d :     0.058877
      dxz     :     0.011881
      dyz     :     0.007827
      dx2y2   :     0.016275
      dxy     :     0.011403

  1 C s       :     3.198305  s :     3.198305
      pz      :     0.977376  p :     2.960679
      px      :     0.996997
      py      :     0.986305
      dz2     :     0.009318  d :     0.063190
      dxz     :     0.016828
      dyz     :     0.007657
      dx2y2   :     0.011432
      dxy     :     0.017956

  2 C s       :     3.188583  s :     3.188583
      pz      :     1.016448  p :     2.976852
      px      :     0.952054
      py      :     1.008351
      dz2     :     0.006924  d :     0.061392
      dxz     :     0.015212
      dyz     :     0.009892
      dx2y2   :     0.013792
      dxy     :     0.015572

  3 C s       :     3.118979  s :     3.118979
      pz      :     0.775634  p :     2.567658
      px      :     0.915106
      py      :     0.876918
      dz2     :     0.019891  d :     0.114508
      dxz     :     0.025493
      dyz     :     0.019688
      dx2y2   :     0.025385
      dxy     :     0.024051

  4 C s       :     3.046514  s :     3.046514
      pz      :     1.042166  p :     2.871987
      px      :     0.875106
      py      :     0.954715
      dz2     :     0.011502  d :     0.068283
      dxz     :     0.016185
      dyz     :     0.008206
      dx2y2   :     0.016030
      dxy     :     0.016359

  5 O s       :     3.793530  s :     3.793530
      pz      :     1.576194  p :     4.531263
      px      :     1.555637
      py      :     1.399432
      dz2     :     0.003303  d :     0.015307
      dxz     :     0.002515
      dyz     :     0.004122
      dx2y2   :     0.002349
      dxy     :     0.003019

  6 C s       :     3.090422  s :     3.090422
      pz      :     0.948503  p :     2.826327
      px      :     0.938148
      py      :     0.939676
      dz2     :     0.013120  d :     0.076202
      dxz     :     0.017838
      dyz     :     0.009555
      dx2y2   :     0.017910
      dxy     :     0.017779

  7 C s       :     3.193608  s :     3.193608
      pz      :     1.013729  p :     2.972650
      px      :     0.944680
      py      :     1.014242
      dz2     :     0.007555  d :     0.062054
      dxz     :     0.013600
      dyz     :     0.010939
      dx2y2   :     0.016044
      dxy     :     0.013916

  8 C s       :     3.201977  s :     3.201977
      pz      :     0.967340  p :     2.968988
      px      :     1.039053
      py      :     0.962595
      dz2     :     0.012351  d :     0.061985
      dxz     :     0.011045
      dyz     :     0.009178
      dx2y2   :     0.019204
      dxy     :     0.010207

  9 C s       :     3.065512  s :     3.065512
      pz      :     0.888776  p :     2.729535
      px      :     0.954510
      py      :     0.886248
      dz2     :     0.016930  d :     0.099849
      dxz     :     0.024839
      dyz     :     0.013865
      dx2y2   :     0.020372
      dxy     :     0.023843

 10 C s       :     3.070982  s :     3.070982
      pz      :     0.988831  p :     2.864225
      px      :     0.886474
      py      :     0.988920
      dz2     :     0.013463  d :     0.073999
      dxz     :     0.016247
      dyz     :     0.010011
      dx2y2   :     0.017849
      dxy     :     0.016428

 11 N s       :     3.614228  s :     3.614228
      pz      :     1.115025  p :     3.685624
      px      :     1.485817
      py      :     1.084782
      dz2     :     0.006578  d :     0.037171
      dxz     :     0.008483
      dyz     :     0.005883
      dx2y2   :     0.006955
      dxy     :     0.009271

 12 C s       :     3.134925  s :     3.134925
      pz      :     0.968552  p :     2.825336
      px      :     0.904571
      py      :     0.952214
      dz2     :     0.012310  d :     0.090275
      dxz     :     0.019053
      dyz     :     0.014395
      dx2y2   :     0.024506
      dxy     :     0.020011

 13 C s       :     3.232642  s :     3.232642
      pz      :     0.994296  p :     2.998760
      px      :     0.996413
      py      :     1.008051
      dz2     :     0.008588  d :     0.059506
      dxz     :     0.015252
      dyz     :     0.008028
      dx2y2   :     0.011591
      dxy     :     0.016048

 14 C s       :     3.157631  s :     3.157631
      pz      :     0.948830  p :     2.885354
      px      :     0.994489
      py      :     0.942035
      dz2     :     0.012483  d :     0.062328
      dxz     :     0.012183
      dyz     :     0.008573
      dx2y2   :     0.018012
      dxy     :     0.011077

 15 C s       :     2.903568  s :     2.903568
      pz      :     0.763116  p :     2.335551
      px      :     0.786873
      py      :     0.785562
      dz2     :     0.056313  d :     0.230961
      dxz     :     0.049336
      dyz     :     0.064106
      dx2y2   :     0.031378
      dxy     :     0.029829

 16 O s       :     3.825808  s :     3.825808
      pz      :     1.387828  p :     4.625683
      px      :     1.564062
      py      :     1.673792
      dz2     :     0.006216  d :     0.015986
      dxz     :     0.005105
      dyz     :     0.003329
      dx2y2   :     0.000756
      dxy     :     0.000580

 17 N s       :     3.463504  s :     3.463504
      pz      :     1.130748  p :     3.825549
      px      :     1.377677
      py      :     1.317124
      dz2     :     0.008177  d :     0.035620
      dxz     :     0.007940
      dyz     :     0.009539
      dx2y2   :     0.005147
      dxy     :     0.004817

 18 C s       :     3.322333  s :     3.322333
      pz      :     0.859500  p :     3.139407
      px      :     1.121524
      py      :     1.158383
      dz2     :     0.016474  d :     0.070785
      dxz     :     0.017431
      dyz     :     0.016320
      dx2y2   :     0.009898
      dxy     :     0.010661

 19 C s       :     3.321032  s :     3.321032
      pz      :     1.178899  p :     3.132732
      px      :     0.986189
      py      :     0.967645
      dz2     :     0.013946  d :     0.071088
      dxz     :     0.016118
      dyz     :     0.004127
      dx2y2   :     0.018297
      dxy     :     0.018599

 20 H s       :     0.766088  s :     0.766088

 21 H s       :     0.766989  s :     0.766989

 22 H s       :     0.763688  s :     0.763688

 23 H s       :     0.740116  s :     0.740116

 24 H s       :     0.772462  s :     0.772462

 25 H s       :     0.769937  s :     0.769937

 26 H s       :     0.773475  s :     0.773475

 27 H s       :     0.769008  s :     0.769008

 28 H s       :     0.773104  s :     0.773104

 29 H s       :     0.771016  s :     0.771016

 30 H s       :     0.772541  s :     0.772541

 31 H s       :     0.779697  s :     0.779697

 32 H s       :     0.771006  s :     0.771006

 33 H s       :     0.764199  s :     0.764199



                     *******************************
                     * LOEWDIN POPULATION ANALYSIS *
                     *******************************

----------------------
LOEWDIN ATOMIC CHARGES
----------------------
   0 C :   -0.114846
   1 C :   -0.104564
   2 C :   -0.103425
   3 C :   -0.006852
   4 C :   -0.038396
   5 O :    0.081472
   6 C :   -0.032937
   7 C :   -0.092520
   8 C :   -0.098394
   9 C :   -0.037048
  10 C :   -0.050316
  11 N :   -0.003096
  12 C :   -0.105238
  13 C :   -0.128973
  14 C :   -0.061645
  15 C :   -0.124318
  16 O :   -0.200572
  17 N :    0.044105
  18 C :   -0.248208
  19 C :   -0.242037
  20 H :    0.114428
  21 H :    0.117446
  22 H :    0.114114
  23 H :    0.117344
  24 H :    0.109534
  25 H :    0.115447
  26 H :    0.122726
  27 H :    0.122350
  28 H :    0.123687
  29 H :    0.124921
  30 H :    0.124248
  31 H :    0.107502
  32 H :    0.126313
  33 H :    0.127748

-------------------------------
LOEWDIN REDUCED ORBITAL CHARGES
-------------------------------
  0 C s       :     2.830987  s :     2.830987
      pz      :     1.042127  p :     3.152852
      px      :     1.070778
      py      :     1.039947
      dz2     :     0.023692  d :     0.131007
      dxz     :     0.026745
      dyz     :     0.021367
      dx2y2   :     0.031997
      dxy     :     0.027206

  1 C s       :     2.826995  s :     2.826995
      pz      :     1.022830  p :     3.140179
      px      :     1.097122
      py      :     1.020227
      dz2     :     0.020359  d :     0.137390
      dxz     :     0.035093
      dyz     :     0.017006
      dx2y2   :     0.028655
      dxy     :     0.036278

  2 C s       :     2.826028  s :     2.826028
      pz      :     1.023916  p :     3.143674
      px      :     1.095242
      py      :     1.024517
      dz2     :     0.014805  d :     0.133722
      dxz     :     0.034260
      dyz     :     0.016246
      dx2y2   :     0.033263
      dxy     :     0.035148

  3 C s       :     2.787423  s :     2.787423
      pz      :     0.937490  p :     2.967706
      px      :     1.084049
      py      :     0.946167
      dz2     :     0.042110  d :     0.251722
      dxz     :     0.056298
      dyz     :     0.047144
      dx2y2   :     0.055613
      dxy     :     0.050557

  4 C s       :     2.784063  s :     2.784063
      pz      :     1.022226  p :     3.093474
      px      :     1.048695
      py      :     1.022553
      dz2     :     0.025132  d :     0.160859
      dxz     :     0.037607
      dyz     :     0.020574
      dx2y2   :     0.039354
      dxy     :     0.038192

  5 O s       :     3.360853  s :     3.360853
      pz      :     1.572485  p :     4.532186
      px      :     1.552812
      py      :     1.406888
      dz2     :     0.005115  d :     0.025490
      dxz     :     0.003684
      dyz     :     0.006704
      dx2y2   :     0.003737
      dxy     :     0.006250

  6 C s       :     2.778501  s :     2.778501
      pz      :     1.005800  p :     3.080668
      px      :     1.066355
      py      :     1.008513
      dz2     :     0.028269  d :     0.173768
      dxz     :     0.040486
      dyz     :     0.023338
      dx2y2   :     0.041312
      dxy     :     0.040363

  7 C s       :     2.827547  s :     2.827547
      pz      :     1.022096  p :     3.130444
      px      :     1.078867
      py      :     1.029481
      dz2     :     0.015601  d :     0.134529
      dxz     :     0.031236
      dyz     :     0.018454
      dx2y2   :     0.036710
      dxy     :     0.032528

  8 C s       :     2.827169  s :     2.827169
      pz      :     1.023853  p :     3.136220
      px      :     1.081953
      py      :     1.030415
      dz2     :     0.025222  d :     0.135005
      dxz     :     0.024669
      dyz     :     0.022776
      dx2y2   :     0.037625
      dxy     :     0.024713

  9 C s       :     2.782592  s :     2.782592
      pz      :     0.983761  p :     3.027382
      px      :     1.061402
      py      :     0.982218
      dz2     :     0.034874  d :     0.227075
      dxz     :     0.057495
      dyz     :     0.033906
      dx2y2   :     0.045799
      dxy     :     0.055001

 10 C s       :     2.783246  s :     2.783246
      pz      :     1.008630  p :     3.095470
      px      :     1.075624
      py      :     1.011216
      dz2     :     0.028520  d :     0.171600
      dxz     :     0.038441
      dyz     :     0.023684
      dx2y2   :     0.041993
      dxy     :     0.038963

 11 N s       :     3.134319  s :     3.134319
      pz      :     1.149078  p :     3.799859
      px      :     1.518406
      py      :     1.132375
      dz2     :     0.012117  d :     0.068918
      dxz     :     0.014323
      dyz     :     0.014108
      dx2y2   :     0.012233
      dxy     :     0.016137

 12 C s       :     2.837097  s :     2.837097
      pz      :     0.993329  p :     3.069660
      px      :     1.085462
      py      :     0.990869
      dz2     :     0.025844  d :     0.198480
      dxz     :     0.042937
      dyz     :     0.025355
      dx2y2   :     0.056777
      dxy     :     0.047568

 13 C s       :     2.837389  s :     2.837389
[...]
 49:    994.21   0.005369   27.13  0.001685  (-0.021818 -0.002671  0.034672)
 50:   1000.84   0.000193    0.98  0.000060  ( 0.001038 -0.005248  0.005626)
 51:   1029.00   0.009063   45.80  0.002749  ( 0.043908 -0.028515 -0.002751)
 52:   1046.47   0.008353   42.21  0.002491  ( 0.024711 -0.043317 -0.001952)
 53:   1082.44   0.003822   19.31  0.001102  ( 0.008867 -0.031966  0.001158)
 54:   1084.29   0.001044    5.28  0.000301  (-0.000228  0.009188 -0.014700)
 55:   1107.83   0.000612    3.09  0.000172  (-0.012732 -0.002982 -0.001147)
 56:   1133.75   0.000513    2.59  0.000141  ( 0.004150  0.003557 -0.010557)
 57:   1148.17   0.008261   41.75  0.002245  (-0.006045 -0.042652 -0.019739)
 58:   1159.87   0.186747  943.74  0.050244  (-0.102300  0.170151  0.104057)
 59:   1172.39   0.001819    9.19  0.000484  (-0.002777  0.016302  0.014513)
 60:   1181.29   0.018188   91.92  0.004805  (-0.037547  0.055298  0.018364)
 61:   1188.02   0.002230   11.27  0.000586  ( 0.012003 -0.020816 -0.002891)
 62:   1220.59   0.004219   21.32  0.001079  (-0.008607  0.027626  0.015539)
 63:   1225.87   0.008414   42.52  0.002142  (-0.022115  0.036372  0.018166)
 64:   1258.01   0.027999  141.50  0.006946  (-0.050807  0.060862  0.025691)
 65:   1272.17   0.004586   23.18  0.001125  (-0.012911  0.029398  0.009700)
 66:   1286.17   0.002980   15.06  0.000723  ( 0.003079  0.022461 -0.014463)
 67:   1324.53   0.003104   15.68  0.000731  ( 0.018653 -0.015242 -0.012287)
 68:   1342.59   0.006168   31.17  0.001434  (-0.021242  0.024788  0.019182)
 69:   1355.88   0.002026   10.24  0.000466  ( 0.015483 -0.011063 -0.010204)
 70:   1412.11   0.025140  127.05  0.005556  ( 0.000398  0.062546  0.040541)
 71:   1420.68   0.043653  220.60  0.009589  (-0.056562  0.070161  0.038299)
 72:   1446.10   0.003720   18.80  0.000803  ( 0.005662  0.006369 -0.027022)
 73:   1452.54   0.002461   12.43  0.000529  (-0.005202 -0.019610 -0.010817)
 74:   1456.93   0.006322   31.95  0.001354  ( 0.001770  0.030046  0.021170)
 75:   1470.42   0.006549   33.09  0.001390  ( 0.019139 -0.029544  0.012274)
 76:   1477.67   0.003728   18.84  0.000787  ( 0.020890  0.010010 -0.015837)
 77:   1492.96   0.000441    2.23  0.000092  ( 0.001153 -0.001953 -0.009333)
 78:   1501.00   0.006582   33.26  0.001368  (-0.029928 -0.007073 -0.020557)
 79:   1504.63   0.003211   16.23  0.000666  ( 0.001370  0.021367 -0.014409)
 80:   1531.58   0.001658    8.38  0.000338  ( 0.014546 -0.009992  0.005128)
 81:   1536.45   0.014050   71.00  0.002854  ( 0.014401 -0.050952 -0.007084)
 82:   1548.45   0.010241   51.75  0.002064  (-0.024930  0.032762  0.019209)
 83:   1601.16   0.007840   39.62  0.001528  ( 0.037331 -0.004274 -0.010777)
 84:   1633.18   0.010980   55.49  0.002098  (-0.008722 -0.034712 -0.028584)
 85:   1647.03   0.001179    5.96  0.000223  (-0.007690 -0.009109 -0.009014)
 86:   1661.52   0.004327   21.87  0.000813  ( 0.027401  0.007821 -0.000831)
 87:   1743.13   0.176276  890.83  0.031558  ( 0.035402  0.005888 -0.173982)
 88:   3023.63   0.008652   43.72  0.000893  (-0.006726 -0.021107  0.020055)
 89:   3028.53   0.026007  131.43  0.002680  ( 0.038016 -0.020982 -0.028185)
 90:   3078.18   0.015745   79.57  0.001596  ( 0.030140  0.020665  0.016148)
 91:   3084.85   0.005058   25.56  0.000512  ( 0.013703  0.011592  0.013766)
 92:   3150.51   0.009591   48.47  0.000950  (-0.004054  0.022150  0.021047)
 93:   3169.90   0.000370    1.87  0.000036  ( 0.005646  0.002031  0.000658)
 94:   3173.63   0.001598    8.07  0.000157  (-0.001576 -0.004491  0.011595)
 95:   3176.39   0.000833    4.21  0.000082  (-0.007119  0.003064  0.004666)
 96:   3177.02   0.002080   10.51  0.000204  ( 0.013238 -0.002505 -0.004777)
 97:   3184.22   0.002549   12.88  0.000250  (-0.009418  0.012668  0.000824)
 98:   3186.56   0.005015   25.34  0.000491  ( 0.018850 -0.006345 -0.009772)
 99:   3189.48   0.009353   47.26  0.000915  ( 0.007593 -0.020994 -0.020412)
100:   3200.97   0.010688   54.02  0.001042  ( 0.022801  0.019135  0.012489)
101:   3201.27   0.000676    3.41  0.000066  ( 0.007292  0.003451  0.000890)

* The epsilon (eps) is given for a Dirac delta lineshape.
** The dipole moment derivative (T) already includes vibrational overlap.

The first frequency considered to be a vibration is 6
The total number of vibrations considered is 96


--------------------------
THERMOCHEMISTRY AT 298.15K
--------------------------

Temperature         ...   298.15 K
Pressure            ...     1.00 atm
Total Mass          ...   266.30 AMU
Quasi RRHO          ...     True
Cut-Off Frequency   ...     1.00 cm^-1

Throughout the following assumptions are being made:
  (1) The electronic state is orbitally nondegenerate
  (2) There are no thermally accessible electronically excited states
  (3) Hindered rotations indicated by low frequency modes are not
      treated as such but are treated as vibrations and this may
      cause some error
  (4) All equations used are the standard statistical mechanics
      equations for an ideal gas
  (5) All vibrations are strictly harmonic

freq.      32.95  E(vib)   ...       0.55 
freq.      35.61  E(vib)   ...       0.54 
freq.      49.53  E(vib)   ...       0.52 
freq.      63.20  E(vib)   ...       0.51 
freq.      88.48  E(vib)   ...       0.47 
freq.      99.21  E(vib)   ...       0.46 
freq.     115.00  E(vib)   ...       0.44 
freq.     130.05  E(vib)   ...       0.43 
freq.     203.63  E(vib)   ...       0.35 
freq.     216.18  E(vib)   ...       0.34 
freq.     229.56  E(vib)   ...       0.32 
freq.     233.52  E(vib)   ...       0.32 
freq.     245.02  E(vib)   ...       0.31 
freq.     296.45  E(vib)   ...       0.27 
freq.     365.33  E(vib)   ...       0.22 
freq.     377.30  E(vib)   ...       0.21 
freq.     409.81  E(vib)   ...       0.19 
freq.     421.21  E(vib)   ...       0.18 
freq.     463.57  E(vib)   ...       0.16 
freq.     488.90  E(vib)   ...       0.15 
freq.     509.70  E(vib)   ...       0.14 
freq.     519.60  E(vib)   ...       0.13 
freq.     524.83  E(vib)   ...       0.13 
freq.     561.36  E(vib)   ...       0.11 
freq.     582.27  E(vib)   ...       0.11 
freq.     607.38  E(vib)   ...       0.10 
freq.     623.21  E(vib)   ...       0.09 
freq.     659.19  E(vib)   ...       0.08 
freq.     701.66  E(vib)   ...       0.07 
freq.     729.76  E(vib)   ...       0.06 
freq.     736.01  E(vib)   ...       0.06 
freq.     739.53  E(vib)   ...       0.06 
freq.     773.21  E(vib)   ...       0.05 
freq.     800.95  E(vib)   ...       0.05 
freq.     823.77  E(vib)   ...       0.05 
freq.     833.34  E(vib)   ...       0.04 
freq.     853.98  E(vib)   ...       0.04 
freq.     868.28  E(vib)   ...       0.04 
freq.     870.65  E(vib)   ...       0.04 
freq.     922.24  E(vib)   ...       0.03 
freq.     965.45  E(vib)   ...       0.03 
freq.     979.63  E(vib)   ...       0.03 
freq.     988.14  E(vib)   ...       0.02 
freq.     994.21  E(vib)   ...       0.02 
freq.    1000.84  E(vib)   ...       0.02 
freq.    1029.00  E(vib)   ...       0.02 
freq.    1046.47  E(vib)   ...       0.02 
freq.    1082.44  E(vib)   ...       0.02 
freq.    1084.29  E(vib)   ...       0.02 
freq.    1107.83  E(vib)   ...       0.02 
freq.    1133.75  E(vib)   ...       0.01 
freq.    1148.17  E(vib)   ...       0.01 
freq.    1159.87  E(vib)   ...       0.01 
freq.    1172.39  E(vib)   ...       0.01 
freq.    1181.29  E(vib)   ...       0.01 
freq.    1188.02  E(vib)   ...       0.01 
freq.    1220.59  E(vib)   ...       0.01 
freq.    1225.87  E(vib)   ...       0.01 
freq.    1258.01  E(vib)   ...       0.01 
freq.    1272.17  E(vib)   ...       0.01 
freq.    1286.17  E(vib)   ...       0.01 
freq.    1324.53  E(vib)   ...       0.01 
freq.    1342.59  E(vib)   ...       0.01 
freq.    1355.88  E(vib)   ...       0.01 
freq.    1412.11  E(vib)   ...       0.00 
freq.    1420.68  E(vib)   ...       0.00 
freq.    1446.10  E(vib)   ...       0.00 
freq.    1452.54  E(vib)   ...       0.00 
freq.    1456.93  E(vib)   ...       0.00 
freq.    1470.42  E(vib)   ...       0.00 
freq.    1477.67  E(vib)   ...       0.00 
freq.    1492.96  E(vib)   ...       0.00 
freq.    1501.00  E(vib)   ...       0.00 
freq.    1504.63  E(vib)   ...       0.00 
freq.    1531.58  E(vib)   ...       0.00 
freq.    1536.45  E(vib)   ...       0.00 
freq.    1548.45  E(vib)   ...       0.00 
freq.    1601.16  E(vib)   ...       0.00 
freq.    1633.18  E(vib)   ...       0.00 
freq.    1647.03  E(vib)   ...       0.00 
freq.    1661.52  E(vib)   ...       0.00 
freq.    1743.13  E(vib)   ...       0.00 
freq.    3023.63  E(vib)   ...       0.00 
freq.    3028.53  E(vib)   ...       0.00 
freq.    3078.18  E(vib)   ...       0.00 
freq.    3084.85  E(vib)   ...       0.00 
freq.    3150.51  E(vib)   ...       0.00 
freq.    3169.90  E(vib)   ...       0.00 
freq.    3173.63  E(vib)   ...       0.00 
freq.    3176.39  E(vib)   ...       0.00 
freq.    3177.02  E(vib)   ...       0.00 
freq.    3184.22  E(vib)   ...       0.00 
freq.    3186.56  E(vib)   ...       0.00 
freq.    3189.48  E(vib)   ...       0.00 
freq.    3200.97  E(vib)   ...       0.00 
freq.    3201.27  E(vib)   ...       0.00 

------------
INNER ENERGY
------------

The inner energy is: U= E(el) + E(ZPE) + E(vib) + E(rot) + E(trans)
    E(el)   - is the total energy from the electronic structure calculation
              = E(kin-el) + E(nuc-el) + E(el-el) + E(nuc-nuc)
    E(ZPE)  - the the zero temperature vibrational energy from the frequency calculation
    E(vib)  - the the finite temperature correction to E(ZPE) due to population
              of excited vibrational states
    E(rot)  - is the rotational thermal energy
    E(trans)- is the translational thermal energy

Summary of contributions to the inner energy U:
Electronic energy                ...   -878.32947421 Eh
Zero point energy                ...      0.26863172 Eh     168.57 kcal/mol
Thermal vibrational correction   ...      0.01404703 Eh       8.81 kcal/mol
Thermal rotational correction    ...      0.00141627 Eh       0.89 kcal/mol
Thermal translational correction ...      0.00141627 Eh       0.89 kcal/mol
-----------------------------------------------------------------------
Total thermal energy                   -878.04396292 Eh


Summary of corrections to the electronic energy:
(perhaps to be used in another calculation)
Total thermal correction                  0.01687957 Eh      10.59 kcal/mol
Non-thermal (ZPE) correction              0.26863172 Eh     168.57 kcal/mol
-----------------------------------------------------------------------
Total correction                          0.28551129 Eh     179.16 kcal/mol


--------
ENTHALPY
--------

The enthalpy is H = U + kB*T
                kB is Boltzmann's constant
Total thermal energy              ...   -878.04396292 Eh 
Thermal Enthalpy correction       ...      0.00094421 Eh       0.59 kcal/mol
-----------------------------------------------------------------------
Total Enthalpy                    ...   -878.04301871 Eh


Note: Only C1 symmetry has been detected, increase convergence thresholds 
      if your molecule has a higher symmetry. Symmetry factor of 1.0 is   
      used for the rotational entropy correction. 
 

Note: Rotational entropy computed according to Herzberg 
Infrared and Raman Spectra, Chapter V,1, Van Nostrand Reinhold, 1945 
Point Group:  C1, Symmetry Number:   1  
Rotational constants in cm-1:     0.016152     0.010984     0.007128 

Vibrational entropy computed according to the QRRHO of S. Grimme
Chem.Eur.J. 2012 18 9955 using a reference frequency of 100.0 cm-1


-------
ENTROPY
-------

The entropy contributions are T*S = T*(S(el)+S(vib)+S(rot)+S(trans))
     S(el)   - electronic entropy
     S(vib)  - vibrational entropy
     S(rot)  - rotational entropy
     S(trans)- translational entropy
The entropies will be listed as multiplied by the temperature to get
units of energy

Electronic entropy                ...      0.00000000 Eh      0.00 kcal/mol
Vibrational entropy               ...      0.02464762 Eh     15.47 kcal/mol
Rotational entropy                ...      0.01592217 Eh      9.99 kcal/mol
Translational entropy             ...      0.02025841 Eh     12.71 kcal/mol
-----------------------------------------------------------------------
Final entropy term                ...      0.06082820 Eh     38.17 kcal/mol

In case the symmetry of your molecule has not been determined correctly
or in case you have a reason to use a different symmetry number we print 
out the resulting rotational entropy values for sn=1,12:

 non-linear molecules -----------------------------------
|  sn= 1 | S(rot)=       0.01592217 Eh      9.99 kcal/mol|
|  sn= 2 | S(rot)=       0.01526771 Eh      9.58 kcal/mol|
|  sn= 3 | S(rot)=       0.01488488 Eh      9.34 kcal/mol|
|  sn= 4 | S(rot)=       0.01461326 Eh      9.17 kcal/mol|
|  sn= 5 | S(rot)=       0.01440257 Eh      9.04 kcal/mol|
|  sn= 6 | S(rot)=       0.01423043 Eh      8.93 kcal/mol|
|  sn= 7 | S(rot)=       0.01408488 Eh      8.84 kcal/mol|
|  sn= 8 | S(rot)=       0.01395880 Eh      8.76 kcal/mol|
|  sn= 9 | S(rot)=       0.01384759 Eh      8.69 kcal/mol|
|  sn=10 | S(rot)=       0.01374811 Eh      8.63 kcal/mol|
|  sn=11 | S(rot)=       0.01365812 Eh      8.57 kcal/mol|
|  sn=12 | S(rot)=       0.01357597 Eh      8.52 kcal/mol|
 linear molecules ---------------------------------------
|  Dinfh | S(rot)=       0.00999356 Eh      6.27 kcal/mol|
|  Cinfv | S(rot)=       0.01064802 Eh      6.68 kcal/mol|
 --------------------------------------------------------


-------------------
GIBBS FREE ENERGY
-------------------

The Gibbs free energy is G = H - T*S

Total enthalpy                    ...   -878.04301871 Eh 
Total entropy correction          ...     -0.06082820 Eh    -38.17 kcal/mol
-----------------------------------------------------------------------
Final Gibbs free energy         ...   -878.10384691 Eh

For completeness - the Gibbs free energy minus the electronic energy
G-E(el)                           ...      0.22562729 Eh    141.58 kcal/mol


Maximum memory used throughout the entire PROP-calculation: 231.9 MB

--------------------------------
SUGGESTED CITATIONS FOR THIS RUN
--------------------------------

Below you find a list of papers that are relevant to this ORCA run
We neither can nor want to force you to cite these papers, but we appreciate if you do
You receive ORCA, which is the product of decades of hard work by many enthusiastic individuals, for free
The only thing we kindly ask in return is that you cite our papers,
We deeply appreciate it, if you show your appreciation for ORCA by not just citing the generic ORCA reference.

Please note that relegating all ORCA citations to the supporting information does *not* help us.
SI sections are not indexed - citations you put there will not count into any citation statistics
But we need these citations in order to attract the funding resources that allow us to do what we are doing

Therefore, if you are a happy ORCA user, please consider citing a few of the papers listed below in the main body of your paper

In addition to the list printed below, the program has created the file 4.bibtex that contains the list in bibtex format
You can import this file easily into all common literature databanks and citation aid programs


List of essential papers. We consider these as the minimum necessary citations

  1. Neese,F.
     Software update: the ORCA program system, version 5.0
     WIRES Comput. Molec. Sci., 2022 12(1)e1606
     doi.org/10.1002/wcms.1606

List of papers to cite with high priority. The work reported in these papers was absolutely
necessary for this run to complete.
Our perspective: the developers of density functionals and basis sets usually get cited in chemistry papers
Good! But without the algorithms to do something with them, the functionals or basis sets would not do anything.
Hence, in our opinion, the algorithm design and method developments papers are equally worthy of getting cited

  1. Neese,F.
     An improvement of the resolution of the identity approximation for the formation of the Coulomb matrix
     J. Comp. Chem., 2003 24(14)1740-1747
     doi.org/10.1002/jcc.10318
  2. Neese,F.; Wennmohs,F.; Hansen,A.; Becker,U.
     Efficient, approximate and parallel Hartree-Fock and hybrid DFT calculations. A 'chain-of-spheres' algorithm for the Hartree-Fock exchange
     Chem. Phys., 2009 356(1-3)98-109
     doi.org/10.1016/j.chemphys.2008.10.036
  3. Bykov,D.; Petrenko,T.; Izsak,R.; Kossmann,S.; Becker,U.; Valeev,E.; Neese,F.
     Efficient implementation of the analytic second derivatives of Hartree-Fock and hybrid DFT energies: a detailed analysis of different approximations
     Molec. Phys., 2015 113 1961-1977
     doi.org/10.1080/00268976.2015.1025114
  4. Garcia-Rates,M.; Neese,F.
     Efficient implementation of the analytical second derivatives of hartree-fock and hybrid DFT energies within the framework of the conductor-like polarizable continuum model
     J. Comput. Chem., 2019 40 1816-1828
     doi.org/10.1002/jcc.25833
  5. Garcia-Rates,M.; Neese,F.
     Effect of the Solute Cavity on the Solvation Energy and its Derivatives within the Framework of the Gaussian Charge Scheme
     J. Comput. Chem., 2020 41 922-939
     doi.org/10.1002/jcc.26139
  6. Helmich-Paris,B.; de Souza,B.; Neese,F.; Izsák,R.
     An improved chain of spheres for exchange algorithm
     J. Chem. Phys., 2021 155 104109
     doi.org/doi: 10.1063/5.0058766.
  7. Neese,F.
     The SHARK Integral Generation and Digestion System
     J. Comp. Chem., 2022  1-16
     doi.org/10.1002/jcc.26942

List of suggested additional citations. These are papers that are important in the 'surrounding' of 
of this run, or papers that preceded the highly important papers. If you like your results we are grateful for a citation.

  1. Izsak,R.; Neese,F.
     An overlap fitted chain of spheres exchange method
     J. Chem. Phys., 2011 135 144105
     doi.org/10.1063/1.3646921
  2. Izsak,R.; Hansen,A.; Neese,F.
     The resolution of identity and chain of spheres approximations for the LPNO-CCSD singles Fock term
     Molec. Phys., 2012 110 2413-2417
     doi.org/10.1080/00268976.2012.687466
  3. Neese,F.
     The ORCA program system
     WIRES Comput. Molec. Sci., 2012 2(1)73-78
     doi.org/10.1002/wcms.81
  4. Izsak,R.; Neese,F.; Klopper,W.
     Robust fitting techniques in the chain of spheres approximation to the Fock exchange: The role of the complementary space
     J. Chem. Phys., 2013 139 
     doi.org/10.1063/1.4819264
  5. Neese,F.
     Software update: the ORCA program system, version 4.0
     WIRES Comput. Molec. Sci., 2018 8(1)1-6
     doi.org/10.1002/wcms.1327
  6. Neese,F.; Wennmohs,F.; Becker,U.; Riplinger,C.
     The ORCA quantum chemistry program package
     J. Chem. Phys., 2020 152 Art. No. L224108
     doi.org/10.1063/5.0004608

List of optional additional citations

  1. Neese,F.
     Approximate second-order SCF convergence for spin unrestricted wavefunctions
     Chem. Phys. Lett., 2000 325(1-3)93-98
     doi.org/10.1016/s0009-2614(00)00662-x

Timings for individual modules:

Sum of individual times          ...     9417.617 sec (= 156.960 min)
Startup calculation              ...      114.095 sec (=   1.902 min)   1.2 %
SCF iterations                   ...     3465.151 sec (=  57.753 min)  36.8 %
Property integrals               ...     1063.868 sec (=  17.731 min)  11.3 %
SCF Response                     ...     1443.120 sec (=  24.052 min)  15.3 %
Property calculations            ...     1375.786 sec (=  22.930 min)  14.6 %
SCF Gradient evaluation          ...     1954.665 sec (=  32.578 min)  20.8 %
Geometry relaxation              ...        0.934 sec (=   0.016 min)   0.0 %
                             ****ORCA TERMINATED NORMALLY****
TOTAL RUN TIME: 0 days 2 hours 37 minutes 6 seconds 404 msec
