
                                 *****************
                                 * O   R   C   A *
                                 *****************

                                            #,                                       
                                            ###                                      
                                            ####                                     
                                            #####                                    
                                            ######                                   
                                           ########,                                 
                                     ,,################,,,,,                         
                               ,,#################################,,                 
                          ,,##########################################,,             
                       ,#########################################, ''#####,          
                    ,#############################################,,   '####,        
                  ,##################################################,,,,####,       
                ,###########''''           ''''###############################       
              ,#####''   ,,,,##########,,,,          '''####'''          '####       
            ,##' ,,,,###########################,,,                        '##       
           ' ,,###''''                  '''############,,,                           
         ,,##''                                '''############,,,,        ,,,,,,###''
      ,#''                                            '''#######################'''  
     '                                                          ''''####''''         
             ,#######,   #######,   ,#######,      ##                                
            ,#'     '#,  ##    ##  ,#'     '#,    #''#        ,####,   ,####,        
            ##       ##  ##   ,#'  ##            #'  '#       #'       #'  '#        
            ##       ##  #######   ##           ,######,      #####,   #    #        
            '#,     ,#'  ##    ##  '#,     ,#' ,#      #,     #,   #   #,  ,#        
             '#######'   ##     ##  '#######'  #'      '#     '####' # '####'        



                #########################################################
                #                        -***-                          #
                #          Department of theory and spectroscopy        #
                #                                                       #
                #                      Frank Neese                      #
                #                                                       #
                #     Directorship, Architecture, Infrastructure        #
                #                    SHARK, DRIVERS                     #
                #        Core code/Algorithms in most modules           #
                #                                                       #
                #        Max Planck Institute fuer Kohlenforschung      #
                #                Kaiser Wilhelm Platz 1                 #
                #                 D-45470 Muelheim/Ruhr                 #
                #                      Germany                          #
                #                                                       #
                #                  All rights reserved                  #
                #                        -***-                          #
                #########################################################


                         Program Version 6.0.1  -  RELEASE   -


 With contributions from (in alphabetic order):
[Max-Planck-Institut fuer Kohlenforschung]                               
  Daniel Aravena         : Magnetic Suceptibility                        
  Michael Atanasov       : Ab Initio Ligand Field Theory (pilot matlab implementation)
  Alexander A. Auer      : GIAO ZORA, VPT2 properties, NMR spectrum      
  Ute Becker             : All parallelization in ORCA, NUMFREQ, NUMCALC 
  Giovanni Bistoni       : ED, misc. LED, open-shell LED, HFLD           
  Martin Brehm           : Molecular dynamics                            
  Dmytro Bykov           : pre 5.0 version of the SCF Hessian            
  Marcos Casanova-Páez   : Triplet and SCS-CIS(D). UHF-(DLPNO)-IP/EA/STEOM-CCSD. UHF-CVS-IP/STEOM-CCSD   
  Vijay G. Chilkuri      : MRCI spin determinant printing, contributions to CSF-ICE 
  Pauline Colinet        : FMM embedding                                 
  Dipayan Datta          : RHF DLPNO-CCSD density                        
  Achintya Kumar Dutta   : EOM-CC, STEOM-CC                              
  Nicolas Foglia         : Exact transition moments, OPA infrastructure, MCD improvements    
  Dmitry Ganyushin       : Spin-Orbit,Spin-Spin,Magnetic field MRCI      
  Miquel Garcia-Rates    : C-PCM and meta-GGA Hessian, CCSD/C-PCM, Gaussian charge scheme 
  Tiago L. C. Gouveia    : GS-ROHF, GS-ROCIS                             
  Yang Guo               : DLPNO-NEVPT2, F12-NEVPT2, CIM, IAO-localization        
  Andreas Hansen         : Spin unrestricted coupled pair/coupled cluster methods 
  Ingolf Harden          : AUTO-CI MPn and infrastructure                
  Benjamin Helmich-Paris : MC-RPA, TRAH-(SCF,CASSCF), AVAS, COSX integrals, SCF dyn. polar. 
  Lee Huntington         : MR-EOM, pCC                                   
  Robert Izsak           : Overlap fitted RIJCOSX, COSX-SCS-MP3, EOM     
  Riya Kayal             : Wick's Theorem for AUTO-CI, AUTO-CI UHF-CCSDT 
  Emily Kempfer          : AUTO-CI, RHF CISDT and CCSDT                  
  Christian Kollmar      : KDIIS, OOCD, Brueckner-CCSD(T), CCSD density, CASPT2, CASPT2-K, improved NEVPT2 
  Axel Koslowski         : Symmetry handling                             
  Simone Kossmann        : meta-GGA functionals, TD-DFT gradient, OOMP2, (MP2 Hessian; deprecated post 5.0) 
  Lucas Lang             : DCDCAS                                        
  Marvin Lechner         : AUTO-CI (C++ implementation), FIC-MRCC        
  Spencer Leger          : CASSCF response                               
  Dagmar Lenk            : GEPOL surface, SMD, ORCA-2-JSON               
  Dimitrios Liakos       : Extrapolation schemes; Compound Job, initial MDCI parallelization 
  Dimitrios Manganas     : Further ROCIS development; embedding schemes. LFT, Crystal Embedding 
  Dimitrios Pantazis     : SARC Basis sets                               
  Anastasios Papadopoulos: AUTO-CI, single reference methods and gradients 
  Taras Petrenko         : pre 6.0 DFT Hessian and TD-DFT gradient, (ASA, deprecated), ECA, 1-Electron XAS/XES, NRVS 
  Peter Pinski           : DLPNO-MP2, DLPNO-MP2 Gradient                 
  Christoph Reimann      : Effective Core Potentials                     
  Marius Retegan         : Local ZFS, SOC                                
  Christoph Riplinger    : Optimizer, TS searches, QM/MM, DLPNO-CCSD(T), (RO)-DLPNO pert. Triples 
  Michael Roemelt        : Original ROCIS implementation                 
  Masaaki Saitow         : Open-shell DLPNO-CCSD energy and density      
  Barbara Sandhoefer     : DKH picture change effects                    
  Kantharuban Sivalingam : CASSCF convergence/infrastructure, NEVPT2 and variants, FIC-MRCI 
  Bernardo de Souza      : ESD, SOC TD-DFT                               
  Georgi L. Stoychev     : AutoAux, RI-MP2 NMR, DLPNO-MP2 response, X2C  
  Van Anh Tran           : RI-MP2 g-tensors                              
  Willem Van den Heuvel  : Paramagnetic NMR                              
  Zikuan Wang            : NOTCH, Electric field optimization            
  Frank Wennmohs         : Technical directorship and infrastructure     
  Hang Xu                : AUTO-CI-Response properties                   
                                                                         
[FACCTs GmbH]                                                            
  Markus Bursch, Miquel Garcia-Rates, Christoph Riplinger, Bernardo de Souza, Georgi L. Stoychev 
                                                                 
  APM, Basis sets (HGBS, AHGBS, def-TZVP (Ac-Lr), def2-XVPD (La-Lu)), CI-OPT, improved COSX, DLPNO-Multilevel,           
  DOCKER, DRACO, updates on ESD, GOAT, IRC, LR-CPCM, MBIS, meta-GGA TD-DFT gradient, ML-optimized integration grids, 
  MM, NACMEs, nearIR, NEB, NEB-TS, NL-DFT gradient (VV10), 2- and 3-layer-ONIOM, interface openCOSMO-RS, QMMM,   
  Crystal-QMMM, SF, symmetry and pop. for TD-DFT, r2SCAN hybrids, SOLVATOR                                   
                                                                         
[Other institutions]                                                     
  V. Asgeirsson          : NEB                                           
  Christoph Bannwarth    : sTDA-DFT, sTD-DFT, PBEh-3c, B97-3c, D3        
  Sebastian Ehlert       : rSCAN, r2SCAN, r2SCAN-3c, D4, dhf basis sets  
  Marvin Friede          : D4 for Fr, Ra, Ac-Lr                          
  Lars Goerigk           : TD-DFT with DH, B97 family of functionals     
  Stefan Grimme          : VdW corrections, initial TS optimization, DFT functionals, gCP, sTDA/sTD-DF 
  Waldemar Hujo          : DFT-NL                                        
  H. Jonsson             : NEB                                           
  Holger Kruse           : gCP                                           
  Marcel Mueller         : wB97X-3c, vDZP basis set                      
  Hagen Neugebauer       : wr2SCAN                                       
  Tobias Risthaus        : range-separated hybrid DFT                    
  Lukas Wittmann         : regularized MP2, r2SCAN double-hybrids, wr2SCAN        
                                                                         
We gratefully acknowledge several colleagues who have allowed us to      
interface, adapt or use parts of their codes:                            
  Ed Valeev, F. Pavosevic, A. Kumar             : LibInt (2-el integral package), F12 methods 
  Garnet Chan, S. Sharma, J. Yang, R. Olivares  : DMRG                   
  Ulf Ekstrom                                   : XCFun DFT Library      
  Mihaly Kallay                                 : mrcc  (arbitrary order and MRCC methods)
  Frank Weinhold                                : gennbo (NPA and NBO analysis)           
  Simon Mueller                                 : openCOSMO-RS                            
  Christopher J. Cramer and Donald G. Truhlar   : smd solvation model                     
  S Lehtola, MJT Oliveira, MAL Marques          : LibXC Library                           
  Liviu Ungur et al                             : ANISO software                          


 Your calculation uses the libint2 library for the computation of 2-el integrals
 For citations please refer to: http://libint.valeyev.net

 Your ORCA version has been built with support for libXC version: 6.2.2
 For citations please refer to: https://libxc.gitlab.io

 This ORCA versions uses:
   CBLAS   interface :  Fast vector & matrix operations
   LAPACKE interface :  Fast linear algebra routines
   SCALAPACK package :  Parallel linear algebra routines
   Shared memory     :  Shared parallel matrices
   BLAS/LAPACK       :  OpenBLAS 0.3.27  USE64BITINT DYNAMIC_ARCH NO_AFFINITY Zen SINGLE_THREADED
        Core in use  :  Zen
   Copyright (c) 2011-2014, The OpenBLAS Project


XCFun DFT library Copyright 2009-2010 Ulf Ekstrom and contributors.
See http://admol.org/xcfun for more information.
This is free software; see the source code for copying conditions.
There is ABSOLUTELY NO WARRANTY; not even for MERCHANTABILITY or FITNESS FOR A PARTICULAR PURPOSE.
For details see the documentation.
Scientific users of this library should cite U. Ekstrom, L. Visscher, R. Bast, A. J. Thorvaldsen and K. Ruud;
J.Chem.Theor.Comp. 2010, DOI: 10.1021/ct100117s
XCFun Version 0.99 

================================================================================

----- Orbital basis set information -----
Your calculation utilizes the basis: def2-TZVP(-f)
   F. Weigend and R. Ahlrichs, Phys. Chem. Chem. Phys. 7, 3297 (2005).

----- AuxJ basis set information -----
Your calculation utilizes the auxiliary basis: def2/J
   F. Weigend, Phys. Chem. Chem. Phys. 8, 1057 (2006).

----- AuxC basis set information -----
Your calculation utilizes the auxiliary basis: def2-TZVP/C
  H-La, Hf-Rn : A. Hellweg, C. Hattig, S. Hofener and W. Klopper, Theor. Chem. Acc. 117, 587 (2007).
        Ce-Lu : J. Chmela and M. E. Harding, Mol. Phys. (2018).

================================================================================
                                        WARNINGS
                       Please study these warnings very carefully!
================================================================================

INFO   : Checking CIS options ...

WARNING: Analytical Frequencies for this method not available!
  ===> : Switching to Numerical Frequencies!

WARNING: The environment variable RSH_COMMAND is not set!
  ===> : All Displacements for the Numerical Hessian or Gradient calculation
         will be started on localhost

WARNING: CIS/ROCIS methods need fully converged wavefunctions
  ===> : Setting SCFConvForced true
         You can overwrite this default with %scf ConvForced false 


================================================================================
                                       INPUT FILE
================================================================================
NAME = hbqdcp-es.inp
|  1> ! CAM-B3LYP FREQ Def2-TZVP(-f) Def2-TZVP/C Def2/J RIJCOSX TightSCF CPCM(Water) AllPop SOSCF
|  2> %pal nprocs 128 end
|  3> 
|  4> %tddft
|  5>     NRoots 3
|  6>     IRoot 1
|  7> end 
|  8> 
|  9> * xyz 1 1 
| 10>   C     -4.407140   -1.283900    1.663535
| 11>   C     -3.562134   -0.833223    0.495185
| 12>   C     -3.503543   -2.224811    1.103524
| 13>   C     -3.325179   -1.755231    2.589851
| 14>   C     -2.443893    0.104931    0.735672
| 15>   C     -1.793961    0.105923    1.961347
| 16>   O     -1.902122    0.825243   -0.273148
| 17>   C     -2.145701   -0.956037    2.878526
| 18>   C     -1.288086   -1.298390    3.926490
| 19>   C     -0.070792   -0.681892    4.077378
| 20>   C     -0.670381    0.941622    2.328725
| 21>   C      0.263608    0.444764    3.277509
| 22>   N     -0.439182    2.197023    1.802572
| 23>   C      0.769242    2.789395    1.930044
| 24>   C      1.786391    2.221042    2.671452
| 25>   C      1.505249    1.093319    3.407123
| 26>   C     -2.629270    1.178761   -1.420674
| 27>   O     -3.826985    1.379224   -1.379449
| 28>   N     -1.822014    1.293127   -2.480795
| 29>   C     -2.365738    1.803600   -3.735664
| 30>   C     -0.389741    1.003658   -2.484915
| 31>   H     -0.158502    0.413600   -3.372400
| 32>   H     -0.105831    0.441982   -1.603474
| 33>   H      0.182739    1.932925   -2.524336
| 34>   H     -3.412242    2.056217   -3.606581
| 35>   H     -2.266411    1.046044   -4.515088
| 36>   H     -1.809956    2.692999   -4.038106
| 37>   H     -3.598846   -2.505570    3.321032
| 38>   H     -4.072464   -0.753198   -0.450896
| 39>   H     -3.395601   -3.225616    0.713354
| 40>   H     -1.566667   -2.117424    4.577500
| 41>   H      0.641564   -1.015770    4.818736
| 42>   H      0.882669    3.757739    1.468768
| 43>   H      2.744554    2.716285    2.723352
| 44>   H      2.238249    0.685262    4.091438
| 45>   P     -1.761343    3.369910    1.392873
| 46>   O     -3.073712    2.781294    1.651489
| 47>   O     -1.314455    3.741596   -0.052997
| 48>   O     -1.372222    4.617922    2.255622
| 49>   C     -1.458154    5.079256   -0.670087
| 50>   C     -2.025515    4.971806    3.532343
| 51>   C     -2.873899    5.337970   -1.122990
| 52>   H     -0.764056    5.040623   -1.505100
| 53>   H     -1.111893    5.814120    0.052751
| 54>   H     -3.564965    5.378978   -0.279988
| 55>   H     -3.209200    4.572738   -1.822786
| 56>   H     -2.900433    6.304592   -1.630403
| 57>   C     -1.099873    4.693382    4.690774
| 58>   H     -2.957643    4.416086    3.602899
| 59>   H     -2.245517    6.031944    3.431443
| 60>   H     -1.585220    5.026441    5.610450
| 61>   H     -0.160964    5.237011    4.582291
| 62>   H     -0.887395    3.627658    4.783065
| 63> *
| 64> 
| 65> 
| 66>                          ****END OF INPUT****
================================================================================

                       ****************************
                       * Single Point Calculation *
                       ****************************

---------------------------------
CARTESIAN COORDINATES (ANGSTROEM)
---------------------------------
  C     -4.407140   -1.283900    1.663535
  C     -3.562134   -0.833223    0.495185
  C     -3.503543   -2.224811    1.103524
  C     -3.325179   -1.755231    2.589851
  C     -2.443893    0.104931    0.735672
  C     -1.793961    0.105923    1.961347
  O     -1.902122    0.825243   -0.273148
  C     -2.145701   -0.956037    2.878526
  C     -1.288086   -1.298390    3.926490
  C     -0.070792   -0.681892    4.077378
  C     -0.670381    0.941622    2.328725
  C      0.263608    0.444764    3.277509
  N     -0.439182    2.197023    1.802572
  C      0.769242    2.789395    1.930044
  C      1.786391    2.221042    2.671452
  C      1.505249    1.093319    3.407123
  C     -2.629270    1.178761   -1.420674
  O     -3.826985    1.379224   -1.379449
  N     -1.822014    1.293127   -2.480795
  C     -2.365738    1.803600   -3.735664
  C     -0.389741    1.003658   -2.484915
  H     -0.158502    0.413600   -3.372400
  H     -0.105831    0.441982   -1.603474
  H      0.182739    1.932925   -2.524336
  H     -3.412242    2.056217   -3.606581
  H     -2.266411    1.046044   -4.515088
  H     -1.809956    2.692999   -4.038106
  H     -3.598846   -2.505570    3.321032
  H     -4.072464   -0.753198   -0.450896
  H     -3.395601   -3.225616    0.713354
  H     -1.566667   -2.117424    4.577500
  H      0.641564   -1.015770    4.818736
  H      0.882669    3.757739    1.468768
  H      2.744554    2.716285    2.723352
  H      2.238249    0.685262    4.091438
  P     -1.761343    3.369910    1.392873
  O     -3.073712    2.781294    1.651489
  O     -1.314455    3.741596   -0.052997
  O     -1.372222    4.617922    2.255622
  C     -1.458154    5.079256   -0.670087
  C     -2.025515    4.971806    3.532343
  C     -2.873899    5.337970   -1.122990
  H     -0.764056    5.040623   -1.505100
  H     -1.111893    5.814120    0.052751
  H     -3.564965    5.378978   -0.279988
  H     -3.209200    4.572738   -1.822786
  H     -2.900433    6.304592   -1.630403
  C     -1.099873    4.693382    4.690774
  H     -2.957643    4.416086    3.602899
  H     -2.245517    6.031944    3.431443
  H     -1.585220    5.026441    5.610450
  H     -0.160964    5.237011    4.582291
  H     -0.887395    3.627658    4.783065

----------------------------
CARTESIAN COORDINATES (A.U.)
----------------------------
  NO LB      ZA    FRAG     MASS         X           Y           Z
   0 C     6.0000    0    12.011   -8.328288   -2.426219    3.143626
   1 C     6.0000    0    12.011   -6.731458   -1.574563    0.935764
   2 C     6.0000    0    12.011   -6.620737   -4.204283    2.085358
   3 C     6.0000    0    12.011   -6.283678   -3.316906    4.894109
   4 C     6.0000    0    12.011   -4.618288    0.198291    1.390219
   5 C     6.0000    0    12.011   -3.390095    0.200165    3.706409
   6 O     8.0000    0    15.999   -3.594490    1.559483   -0.516175
   7 C     6.0000    0    12.011   -4.054787   -1.806648    5.439626
   8 C     6.0000    0    12.011   -2.434130   -2.453602    7.419991
   9 C     6.0000    0    12.011   -0.133777   -1.288589    7.705128
  10 C     6.0000    0    12.011   -1.266836    1.779408    4.400652
  11 C     6.0000    0    12.011    0.498147    0.840482    6.193594
  12 N     7.0000    0    14.007   -0.829934    4.151772    3.406367
  13 C     6.0000    0    12.011    1.453657    5.271193    3.647255
  14 C     6.0000    0    12.011    3.375790    4.197161    5.048313
  15 C     6.0000    0    12.011    2.844508    2.066073    6.438529
  16 C     6.0000    0    12.011   -4.968600    2.227535   -2.684685
  17 O     8.0000    0    15.999   -7.231954    2.606356   -2.606781
  18 N     7.0000    0    14.007   -3.443107    2.443656   -4.688023
  19 C     6.0000    0    12.011   -4.470597    3.408310   -7.059382
  20 C     6.0000    0    12.011   -0.736504    1.896639   -4.695809
  21 H     1.0000    0     1.008   -0.299525    0.781591   -6.372912
  22 H     1.0000    0     1.008   -0.199992    0.835225   -3.030127
  23 H     1.0000    0     1.008    0.345327    3.652699   -4.770304
  24 H     1.0000    0     1.008   -6.448203    3.885687   -6.815450
  25 H     1.0000    0     1.008   -4.282896    1.976737   -8.532280
  26 H     1.0000    0     1.008   -3.420321    5.089031   -7.630914
  27 H     1.0000    0     1.008   -6.800833   -4.734841    6.275841
  28 H     1.0000    0     1.008   -7.695842   -1.423338   -0.852070
  29 H     1.0000    0     1.008   -6.416756   -6.095531    1.348044
  30 H     1.0000    0     1.008   -2.960572   -4.001351    8.650221
  31 H     1.0000    0     1.008    1.212380   -1.919527    9.106091
  32 H     1.0000    0     1.008    1.668003    7.101098    2.775569
  33 H     1.0000    0     1.008    5.186455    5.133035    5.146389
  34 H     1.0000    0     1.008    4.229678    1.294958    7.731697
  35 P    15.0000    0    30.974   -3.328456    6.368207    2.632149
  36 O     8.0000    0    15.999   -5.808474    5.255884    3.120862
  37 O     8.0000    0    15.999   -2.483960    7.070592   -0.100150
  38 O     8.0000    0    15.999   -2.593124    8.726608    4.262508
  39 C     6.0000    0    12.011   -2.755512    9.598403   -1.266281
  40 C     6.0000    0    12.011   -3.827669    9.395352    6.675161
  41 C     6.0000    0    12.011   -5.430882   10.087301   -2.122144
  42 H     1.0000    0     1.008   -1.443857    9.525397   -2.844227
  43 H     1.0000    0     1.008   -2.101173   10.987095    0.099685
  44 H     1.0000    0     1.008   -6.736808   10.164795   -0.529101
  45 H     1.0000    0     1.008   -6.064509    8.641223   -3.444566
  46 H     1.0000    0     1.008   -5.481024   11.913952   -3.081015
  47 C     6.0000    0    12.011   -2.078459    8.869207    8.864278
  48 H     1.0000    0     1.008   -5.589135    8.345193    6.808492
  49 H     1.0000    0     1.008   -4.243412   11.398722    6.484488
  50 H     1.0000    0     1.008   -2.995632    9.498597   10.602214
  51 H     1.0000    0     1.008   -0.304178    9.896517    8.659275
  52 H     1.0000    0     1.008   -1.676934    6.855280    9.038683

--------------------------------
INTERNAL COORDINATES (ANGSTROEM)
--------------------------------
 C      0   0   0     0.000000000000     0.00000000     0.00000000
 C      1   0   0     1.510690776057     0.00000000     0.00000000
 C      1   2   0     1.419652552018    62.39468924     0.00000000
 C      1   2   3     1.500284589316    99.66256694    54.96905276
 C      2   1   3     1.479334262081   119.09652030   252.82561128
 C      5   2   1     1.387332618485   119.88098476    28.90117817
 O      5   2   1     1.352805598076   121.27646601   198.76305271
 C      6   5   2     1.446615839551   116.46847936     8.15653795
 C      8   6   5     1.396759682311   120.41970319   159.83959037
 C      9   8   6     1.372822514014   121.12026170   357.06860548
 C      6   5   2     1.447684851715   126.02982833   178.53346228
 C     11   6   5     1.421053976083   118.53552274   209.79829270
 N     11   6   5     1.380696066414   123.92704021    29.17870073
 C     13  11   6     1.351829227730   120.80967863   196.06892930
 C     14  13  11     1.381051426730   121.91496523   354.95355658
 C     15  14  13     1.375504201787   118.29369433   353.17100725
 C      7   5   2     1.403757497185   122.42865479    26.93337321
 O     17   7   5     1.215074539367   121.62877722    31.40076057
 N     17   7   5     1.337384898275   110.90735585   209.38765663
 C     19  17   7     1.459765282183   119.11048845   186.97190743
 C     19  17   7     1.461237565521   125.23545198     3.94488121
 H     21  19  17     1.090536355978   108.50083302   134.58609075
 H     21  19  17     1.083061888147   110.93935894    14.83353248
 H     21  19  17     1.092165062127   110.20192498   253.43595881
 H     20  19  17     1.084273208926   109.79354237     1.53425412
 H     20  19  17     1.091447991359   109.71058014   241.09439959
 H     20  19  17     1.091510593668   109.48002489   121.83238614
 H      4   1   2     1.082833272748   116.89443223   205.37126434
 H      2   1   3     1.077919277166   115.85690568   105.00140575
 H      3   1   2     1.079580822490   145.14673845   230.60921612
 H      9   8   6     1.082699444360   118.59166170   181.80880088
 H     10   9   8     1.080989025746   121.39964420   186.78024197
 H     14  13  11     1.078578386044   116.55743016   178.29987899
 H     15  14  13     1.079831270902   119.37860367   178.31593639
 H     16  15  14     1.082629453910   120.57694066   187.27819199
 P     13  11   6     1.814284127498   123.49279309    36.29512045
 O     36  13  11     1.461390920689   110.73772398   357.97820044
 O     36  13  11     1.558332257267    98.90109104   229.68312908
 O     36  13  11     1.566296568912   102.10318588   122.69611691
 C     38  36  13     1.480129638343   125.06767176   215.26264294
 C     39  36  13     1.477173700397   123.85468506   258.26196741
 C     40  38  36     1.508770349069   111.79073757   282.38147639
 H     40  38  36     1.086513346656   103.07669722   161.89751037
 H     40  38  36     1.087389788834   107.61968581    46.37758103
 H     42  40  38     1.090828237819   111.64949358    65.07836360
 H     42  40  38     1.089826232039   111.16434200   302.95346367
 H     42  40  38     1.092030263596   108.30409265   183.96497550
 C     41  39  36     1.508739678573   110.36971288   107.52245930
 H     41  39  36     1.087504241794   108.22356440   344.08955927
 H     41  39  36     1.087416327378   104.05407034   227.89452014
 H     48  41  39     1.091922136815   108.52405921   176.28412870
 H     48  41  39     1.090344514918   111.09450675    57.28916363
 H     48  41  39     1.090610917487   111.39733320   295.37957777

---------------------------
INTERNAL COORDINATES (A.U.)
---------------------------
 C      0   0   0     0.000000000000     0.00000000     0.00000000
 C      1   0   0     2.854791839790     0.00000000     0.00000000
 C      1   2   0     2.682754528636    62.39468924     0.00000000
 C      1   2   3     2.835126996749    99.66256694    54.96905276
 C      2   1   3     2.795536615859   119.09652030   252.82561128
 C      5   2   1     2.621678705593   119.88098476    28.90117817
 O      5   2   1     2.556432092799   121.27646601   198.76305271
 C      6   5   2     2.733707757745   116.46847936     8.15653795
 C      8   6   5     2.639493274471   120.41970319   159.83959037
 C      9   8   6     2.594258581968   121.12026170   357.06860548
 C      6   5   2     2.735727897968   126.02982833   178.53346228
 C     11   6   5     2.685402836317   118.53552274   209.79829270
 N     11   6   5     2.609137439705   123.92704021    29.17870073
 C     13  11   6     2.554587020239   120.80967863   196.06892930
 C     14  13  11     2.609808973382   121.91496523   354.95355658
 C     15  14  13     2.599326237436   118.29369433   353.17100725
 C      7   5   2     2.652717228119   122.42865479    26.93337321
 O     17   7   5     2.296158111705   121.62877722    31.40076057
 N     17   7   5     2.527291193381   110.90735585   209.38765663
 C     19  17   7     2.758556603132   119.11048845   186.97190743
 C     19  17   7     2.761338815433   125.23545198     3.94488121
 H     21  19  17     2.060815051883   108.50083302   134.58609075
 H     21  19  17     2.046690354686   110.93935894    14.83353248
 H     21  19  17     2.063892860456   110.20192498   253.43595881
 H     20  19  17     2.048979419218   109.79354237     1.53425412
 H     20  19  17     2.062537793086   109.71058014   241.09439959
 H     20  19  17     2.062656094306   109.48002489   121.83238614
 H      4   1   2     2.046258334192   116.89443223   205.37126434
 H      2   1   3     2.036972228318   115.85690568   105.00140575
 H      3   1   2     2.040112093940   145.14673845   230.60921612
 H      9   8   6     2.046005435189   118.59166170   181.80880088
 H     10   9   8     2.042773212435   121.39964420   186.78024197
 H     14  13  11     2.038217763590   116.55743016   178.29987899
 H     15  14  13     2.040585372849   119.37860367   178.31593639
 H     16  15  14     2.045873172407   120.57694066   187.27819199
 P     13  11   6     3.428500130091   123.49279309    36.29512045
 O     36  13  11     2.761628614702   110.73772398   357.97820044
 O     36  13  11     2.944821191891    98.90109104   229.68312908
 O     36  13  11     2.959871559744   102.10318588   122.69611691
 C     38  36  13     2.797039659168   125.06767176   215.26264294
 C     39  36  13     2.791453745982   123.85468506   258.26196741
 C     40  38  36     2.851162758721   111.79073757   282.38147639
 H     40  38  36     2.053212666030   103.07669722   161.89751037
 H     40  38  36     2.054868901719   107.61968581    46.37758103
 H     42  40  38     2.061366628626   111.64949358    65.07836360
 H     42  40  38     2.059473112118   111.16434200   302.95346367
 H     42  40  38     2.063638128150   108.30409265   183.96497550
 C     41  39  36     2.851104799884   110.36971288   107.52245930
 H     41  39  36     2.055085186468   108.22356440   344.08955927
 H     41  39  36     2.054919052299   104.05407034   227.89452014
 H     48  41  39     2.063433798146   108.52405921   176.28412870
 H     48  41  39     2.060452524818   111.09450675    57.28916363
 H     48  41  39     2.060955952714   111.39733320   295.37957777

---------------------
BASIS SET INFORMATION
---------------------
There are 5 groups of distinct atoms

 Group   1 Type C   : 11s6p2d contracted to 5s3p2d pattern {62111/411/11}
 Group   2 Type O   : 11s6p2d contracted to 5s3p2d pattern {62111/411/11}
 Group   3 Type N   : 11s6p2d contracted to 5s3p2d pattern {62111/411/11}
 Group   4 Type H   : 5s1p contracted to 3s1p pattern {311/1}
 Group   5 Type P   : 14s9p3d contracted to 5s5p2d pattern {73211/51111/21}

Atom   0C    basis set group =>   1
Atom   1C    basis set group =>   1
Atom   2C    basis set group =>   1
Atom   3C    basis set group =>   1
Atom   4C    basis set group =>   1
Atom   5C    basis set group =>   1
Atom   6O    basis set group =>   2
Atom   7C    basis set group =>   1
Atom   8C    basis set group =>   1
Atom   9C    basis set group =>   1
Atom  10C    basis set group =>   1
Atom  11C    basis set group =>   1
Atom  12N    basis set group =>   3
Atom  13C    basis set group =>   1
Atom  14C    basis set group =>   1
Atom  15C    basis set group =>   1
Atom  16C    basis set group =>   1
Atom  17O    basis set group =>   2
Atom  18N    basis set group =>   3
Atom  19C    basis set group =>   1
Atom  20C    basis set group =>   1
Atom  21H    basis set group =>   4
Atom  22H    basis set group =>   4
Atom  23H    basis set group =>   4
Atom  24H    basis set group =>   4
Atom  25H    basis set group =>   4
Atom  26H    basis set group =>   4
Atom  27H    basis set group =>   4
Atom  28H    basis set group =>   4
Atom  29H    basis set group =>   4
Atom  30H    basis set group =>   4
Atom  31H    basis set group =>   4
Atom  32H    basis set group =>   4
Atom  33H    basis set group =>   4
Atom  34H    basis set group =>   4
Atom  35P    basis set group =>   5
Atom  36O    basis set group =>   2
Atom  37O    basis set group =>   2
Atom  38O    basis set group =>   2
Atom  39C    basis set group =>   1
Atom  40C    basis set group =>   1
Atom  41C    basis set group =>   1
Atom  42H    basis set group =>   4
Atom  43H    basis set group =>   4
Atom  44H    basis set group =>   4
Atom  45H    basis set group =>   4
Atom  46H    basis set group =>   4
Atom  47C    basis set group =>   1
Atom  48H    basis set group =>   4
Atom  49H    basis set group =>   4
Atom  50H    basis set group =>   4
Atom  51H    basis set group =>   4
Atom  52H    basis set group =>   4
---------------------------------
AUXILIARY/J BASIS SET INFORMATION
---------------------------------
There are 5 groups of distinct atoms

 Group   1 Type C   : 12s5p4d2f1g contracted to 6s4p3d1f1g pattern {711111/2111/211/2/1}
 Group   2 Type O   : 12s5p4d2f1g contracted to 6s4p3d1f1g pattern {711111/2111/211/2/1}
 Group   3 Type N   : 12s5p4d2f1g contracted to 6s4p3d1f1g pattern {711111/2111/211/2/1}
 Group   4 Type H   : 5s2p1d contracted to 3s1p1d pattern {311/2/1}
 Group   5 Type P   : 14s5p5d2f1g contracted to 8s4p3d1f1g pattern {71111111/2111/311/2/1}

Atom   0C    basis set group =>   1
Atom   1C    basis set group =>   1
Atom   2C    basis set group =>   1
Atom   3C    basis set group =>   1
Atom   4C    basis set group =>   1
Atom   5C    basis set group =>   1
Atom   6O    basis set group =>   2
Atom   7C    basis set group =>   1
Atom   8C    basis set group =>   1
Atom   9C    basis set group =>   1
Atom  10C    basis set group =>   1
Atom  11C    basis set group =>   1
Atom  12N    basis set group =>   3
Atom  13C    basis set group =>   1
Atom  14C    basis set group =>   1
Atom  15C    basis set group =>   1
Atom  16C    basis set group =>   1
Atom  17O    basis set group =>   2
Atom  18N    basis set group =>   3
Atom  19C    basis set group =>   1
Atom  20C    basis set group =>   1
Atom  21H    basis set group =>   4
Atom  22H    basis set group =>   4
Atom  23H    basis set group =>   4
Atom  24H    basis set group =>   4
Atom  25H    basis set group =>   4
Atom  26H    basis set group =>   4
Atom  27H    basis set group =>   4
Atom  28H    basis set group =>   4
Atom  29H    basis set group =>   4
Atom  30H    basis set group =>   4
Atom  31H    basis set group =>   4
Atom  32H    basis set group =>   4
Atom  33H    basis set group =>   4
Atom  34H    basis set group =>   4
Atom  35P    basis set group =>   5
Atom  36O    basis set group =>   2
Atom  37O    basis set group =>   2
Atom  38O    basis set group =>   2
Atom  39C    basis set group =>   1
Atom  40C    basis set group =>   1
Atom  41C    basis set group =>   1
Atom  42H    basis set group =>   4
Atom  43H    basis set group =>   4
Atom  44H    basis set group =>   4
Atom  45H    basis set group =>   4
Atom  46H    basis set group =>   4
Atom  47C    basis set group =>   1
Atom  48H    basis set group =>   4
Atom  49H    basis set group =>   4
Atom  50H    basis set group =>   4
Atom  51H    basis set group =>   4
Atom  52H    basis set group =>   4
---------------------------------
AUXILIARY/C BASIS SET INFORMATION
---------------------------------
There are 5 groups of distinct atoms

 Group   1 Type C   : 8s6p5d3f1g contracted to 8s6p4d3f1g pattern {11111111/111111/2111/111/1}
 Group   2 Type O   : 8s6p5d3f1g contracted to 8s6p4d3f1g pattern {11111111/111111/2111/111/1}
 Group   3 Type N   : 8s6p5d3f1g contracted to 8s6p4d3f1g pattern {11111111/111111/2111/111/1}
 Group   4 Type H   : 4s3p2d contracted to 4s2p1d pattern {1111/21/2}
 Group   5 Type P   : 10s7p7d5f2g contracted to 9s7p6d5f2g pattern {211111111/1111111/211111/11111/11}

Atom   0C    basis set group =>   1
Atom   1C    basis set group =>   1
Atom   2C    basis set group =>   1
Atom   3C    basis set group =>   1
Atom   4C    basis set group =>   1
Atom   5C    basis set group =>   1
Atom   6O    basis set group =>   2
Atom   7C    basis set group =>   1
Atom   8C    basis set group =>   1
Atom   9C    basis set group =>   1
Atom  10C    basis set group =>   1
Atom  11C    basis set group =>   1
Atom  12N    basis set group =>   3
Atom  13C    basis set group =>   1
Atom  14C    basis set group =>   1
Atom  15C    basis set group =>   1
Atom  16C    basis set group =>   1
Atom  17O    basis set group =>   2
Atom  18N    basis set group =>   3
Atom  19C    basis set group =>   1
Atom  20C    basis set group =>   1
Atom  21H    basis set group =>   4
Atom  22H    basis set group =>   4
Atom  23H    basis set group =>   4
Atom  24H    basis set group =>   4
Atom  25H    basis set group =>   4
Atom  26H    basis set group =>   4
Atom  27H    basis set group =>   4
Atom  28H    basis set group =>   4
Atom  29H    basis set group =>   4
Atom  30H    basis set group =>   4
Atom  31H    basis set group =>   4
Atom  32H    basis set group =>   4
Atom  33H    basis set group =>   4
Atom  34H    basis set group =>   4
Atom  35P    basis set group =>   5
Atom  36O    basis set group =>   2
Atom  37O    basis set group =>   2
Atom  38O    basis set group =>   2
Atom  39C    basis set group =>   1
Atom  40C    basis set group =>   1
Atom  41C    basis set group =>   1
Atom  42H    basis set group =>   4
Atom  43H    basis set group =>   4
Atom  44H    basis set group =>   4
Atom  45H    basis set group =>   4
Atom  46H    basis set group =>   4
Atom  47C    basis set group =>   1
Atom  48H    basis set group =>   4
Atom  49H    basis set group =>   4
Atom  50H    basis set group =>   4
Atom  51H    basis set group =>   4
Atom  52H    basis set group =>   4


           ************************************************************
           *        Program running with 128 parallel MPI-processes   *
           *              working on a common directory               *
           ************************************************************
------------------------------------------------------------------------------
                             ORCA STARTUP CALCULATIONS
                           -- RI-GTO INTEGRALS CHOSEN --
------------------------------------------------------------------------------
------------------------------------------------------------------------------
                   ___                                                        
                  /   \      - P O W E R E D   B Y -                         
                 /     \                                                     
                 |  |  |   _    _      __       _____    __    __             
                 |  |  |  | |  | |    /  \     |  _  \  |  |  /  |          
                  \  \/   | |  | |   /    \    | | | |  |  | /  /          
                 / \  \   | |__| |  /  /\  \   | |_| |  |  |/  /          
                |  |  |   |  __  | /  /__\  \  |    /   |      \           
                |  |  |   | |  | | |   __   |  |    \   |  |\   \          
                \     /   | |  | | |  |  |  |  | |\  \  |  | \   \       
                 \___/    |_|  |_| |__|  |__|  |_| \__\ |__|  \__/        
                                                                              
                      - O R C A' S   B I G   F R I E N D -                    
                                      &                                       
                       - I N T E G R A L  F E E D E R -                       
                                                                              
 v1 FN, 2020, v2 2021, v3 2022-2024                                           
------------------------------------------------------------------------------


----------------------
SHARK INTEGRAL PACKAGE
----------------------

Number of atoms                             ...     53
Number of basis functions                   ...    846
Number of shells                            ...    388
Maximum angular momentum                    ...      2
Integral batch strategy                     ... SHARK/LIBINT Hybrid
RI-J (if used) integral strategy            ... SPLIT-RIJ (Revised 2003 algorithm where possible)
Printlevel                                  ...      1
Contraction scheme used                     ... SEGMENTED contraction
Prescreening option                         ... SCHWARTZ
   Thresh                                   ... 2.500e-11
   Tcut                                     ... 2.500e-12
   Tpresel                                  ... 2.500e-12 
Coulomb Range Separation                    ... NOT USED
Exchange Range Separation                   ... Long Range
   Mu parameter                             ... 3.300e-01
   Scaling (regular/separated)              ... 1.900e-01 4.600e-01
Multipole approximations                    ... NOT USED
Finite Nucleus Model                        ... NOT USED
CABS basis                                  ... NOT available
Auxiliary Coulomb fitting basis             ... AVAILABLE
   # of basis functions in Aux-J            ...   1687
   # of shells in Aux-J                     ...    557
   Maximum angular momentum in Aux-J        ...      4
Auxiliary J/K fitting basis                 ... NOT available
Auxiliary Correlation fitting basis         ... AVAILABLE
   # of basis functions in Aux-C            ...   2601
   # of shells in Aux-C                     ...    813
   Maximum angular momentum in Aux-C        ...      4
Auxiliary 'external' fitting basis          ... NOT available

Checking pre-screening integrals            ... done (  1.1 sec) Dimension = 388
Check shell pair data                       ... done (  0.7 sec)
Shell pair information
Shell pair cut-off parameter TPreSel        ...   2.5e-12
Total number of shell pairs                 ...     75466
Shell pairs after pre-screening             ...     52063
Total number of primitive shell pairs       ...    247477
Primitive shell pairs kept                  ...    107597
          la=0 lb=0:  15461 shell pairs
          la=1 lb=0:  17409 shell pairs
          la=1 lb=1:   4931 shell pairs
          la=2 lb=0:   8323 shell pairs
          la=2 lb=1:   4748 shell pairs
          la=2 lb=2:   1191 shell pairs

Calculating one electron integrals          ... done (  0.2 sec)
Calculating RI/J V-Matrix + Cholesky decomp.... done (  2.5 sec)
Calculating RI/C V-Matrix + Cholesky decomp.... done (  4.9 sec)
Calculating Nuclear repulsion               ... done (  0.0 sec) ENN=   3278.298501865174 Eh

Diagonalization of the overlap matrix:
Smallest eigenvalue                        ... 6.458e-06
Time for diagonalization                   ...    0.157 sec
Threshold for overlap eigenvalues          ... 1.000e-07
Number of eigenvalues below threshold      ... 0
Time for construction of square roots      ...    0.375 sec
Total time needed                          ...    4.136 sec

-------------------
DFT GRID GENERATION
-------------------

General Integration Accuracy     IntAcc      ... 4.388
Radial Grid Type                 RadialGrid  ... OptM3 with GC (2021)
Angular Grid (max. ang.)         AngularGrid ... 4 (Lebedev-302)
Angular grid pruning method      GridPruning ... 4 (adaptive)
Weight generation scheme         WeightScheme... mBecke (2022)
Basis function cutoff            BFCut       ... 1.0000e-11
Integration weight cutoff        WCut        ... 1.0000e-14
Partially contracted basis set               ... off
Rotationally invariant grid construction     ... off
Angular grids for H and He will be reduced by one unit

Total number of grid points                  ...   250198
Total number of batches                      ...     3933
Average number of points per batch           ...       63
Average number of grid points per atom       ...     4721

--------------------
COSX GRID GENERATION
--------------------

GRIDX 1
-------
General Integration Accuracy     IntAcc      ... 3.816
Radial Grid Type                 RadialGrid  ... OptM3 with GC (2021)
Angular Grid (max. ang.)         AngularGrid ... 1 (Lebedev-50)
Angular grid pruning method      GridPruning ... 4 (adaptive)
Weight generation scheme         WeightScheme... mBecke (2022)
Basis function cutoff            BFCut       ... 1.0000e-11
Integration weight cutoff        WCut        ... 1.0000e-14
Partially contracted basis set               ... on
Rotationally invariant grid construction     ... off
Angular grids for H and He will be reduced by one unit

Total number of grid points                  ...    32766
Total number of batches                      ...      284
Average number of points per batch           ...      115
Average number of grid points per atom       ...      618
UseSFitting                                  ... on

GRIDX 2
-------
General Integration Accuracy     IntAcc      ... 4.020
Radial Grid Type                 RadialGrid  ... OptM3 with GC (2021)
Angular Grid (max. ang.)         AngularGrid ... 2 (Lebedev-110)
Angular grid pruning method      GridPruning ... 4 (adaptive)
Weight generation scheme         WeightScheme... mBecke (2022)
Basis function cutoff            BFCut       ... 1.0000e-11
Integration weight cutoff        WCut        ... 1.0000e-14
Partially contracted basis set               ... on
Rotationally invariant grid construction     ... off
Angular grids for H and He will be reduced by one unit

Total number of grid points                  ...    68099
Total number of batches                      ...      556
Average number of points per batch           ...      122
Average number of grid points per atom       ...     1285
UseSFitting                                  ... on

GRIDX 3
-------
General Integration Accuracy     IntAcc      ... 4.338
Radial Grid Type                 RadialGrid  ... OptM3 with GC (2021)
Angular Grid (max. ang.)         AngularGrid ... 3 (Lebedev-194)
Angular grid pruning method      GridPruning ... 4 (adaptive)
Weight generation scheme         WeightScheme... mBecke (2022)
Basis function cutoff            BFCut       ... 1.0000e-11
Integration weight cutoff        WCut        ... 1.0000e-14
Partially contracted basis set               ... on
Rotationally invariant grid construction     ... off
Angular grids for H and He will be reduced by one unit

Total number of grid points                  ...   148767
Total number of batches                      ...     1191
Average number of points per batch           ...      124
Average number of grid points per atom       ...     2807
UseSFitting                                  ... on
Initializing property integral containers    ... done (  0.7 sec)

SHARK setup successfully completed in  98.0 seconds

Maximum memory used throughout the entire STARTUP-calculation: 108.6 MB


           ************************************************************
           *        Program running with 128 parallel MPI-processes   *
           *              working on a common directory               *
           ************************************************************
-------------------------------------------------------------------------------
                                 ORCA GUESS
                   Start orbitals & Density for SCF / CASSCF
-------------------------------------------------------------------------------

------------
SCF SETTINGS
------------
Hamiltonian:
 Density Functional     Method          .... DFT(GTOs)
 Exchange Functional    Exchange        .... WB88
 Correlation Functional Correlation     .... LYP
 LDA part of GGA corr.  LDAOpt          .... VWN-5
 Gradients option       PostSCFGGA      .... off
 Hybrid DFT is turned on
   Fraction HF Exchange ScalHFX         ....  0.190000
   Scaling of DF-GGA-X  ScalDFX         ....  0.350000
   Scaling of DF-GGA-C  ScalDFC         ....  0.810000
   Scaling of DF-LDA-C  ScalLDAC        ....  1.000000
   Perturbative correction              ....  0.000000
 Long-range corrected/Screened/Range-Separated Hybrid DFT is turned on
   Amount of maximum screened exact exchange              ....  0.460000
   Range separation parameter mu (erf(mu*r12)/r12)        ....  0.330000
 RI-approximation to the Coulomb term is turned on
   Number of AuxJ basis functions       .... 1687
   RIJ-COSX (HFX calculated with COS-X)).... on


General Settings:
 Integral files         IntName         .... hbqdcp-es
 Hartree-Fock type      HFTyp           .... RHF
 Total Charge           Charge          ....    1
 Multiplicity           Mult            ....    1
 Number of Electrons    NEL             ....  218
 Basis Dimension        Dim             ....  846
 Nuclear Repulsion      ENuc            ....   3278.2985018652 Eh

Convergence Acceleration:
 AO-DIIS                CNVDIIS         .... on
   Start iteration      DIISMaxIt       ....    12
   Startup error        DIISStart       ....  0.200000
   # of expansion vecs  DIISMaxEq       ....     5
   Bias factor          DIISBfac        ....   1.050
   Max. coefficient     DIISMaxC        ....  10.000
 MO-DIIS                CNVKDIIS        .... off
 Trust-Rad. Augm. Hess. CNVTRAH         .... auto
   Auto Start mean grad. ratio tolernc. ....  1.125000
   Auto Start start iteration           ....    50
   Auto Start num. interpolation iter.  ....    10
   Max. Number of Micro iterations      ....    24
   Max. Number of Macro iterations      .... Maxiter - #DIIS iter
   Number of Davidson start vectors     ....     2
   Converg. threshold    (grad. norm)   ....   1.000e-05
   Grad. Scal. Fac. for Micro threshold ....   0.100
   Minimum threshold for Micro iter.    ....   1.000e-02
   NR start threshold (gradient norm)   ....   1.000e-04
   Initial trust radius                 ....   0.400
   Minimum AH scaling param. (alpha)    ....   1.000
   Maximum AH scaling param. (alpha)    .... 1000.000
   Quad. conv. algorithm                .... NR
   White noise on init. David. guess    .... on
   Maximum white noise                  ....   0.010
   Pseudo random numbers                .... off
   Inactive MOs                         .... canonical
   Orbital update algorithm             .... Taylor
   Preconditioner                       .... Diag
   Full preconditioner red. dimension   ....   250
 SOSCF                  CNVSOSCF        .... on
   Start iteration      SOSCFMaxIt      ....   150
   Startup grad/error   SOSCFStart      ....  0.003300
   Hessian update       SOSCFHessUp     .... L-BFGS
 Level Shifting         CNVShift        .... on
   Level shift para.    LevelShift      ....    0.2500
   Turn off err/grad.   ShiftErr        ....    0.0010
 Zerner damping         CNVZerner       .... off
 Static damping         CNVDamp         .... on
   Fraction old density DampFac         ....    0.7000
   Max. Damping (<1)    DampMax         ....    0.9800
   Min. Damping (>=0)   DampMin         ....    0.0000
   Turn off err/grad.   DampErr         ....    0.1000

SCF Procedure:
 Maximum # iterations   MaxIter         ....   125
 SCF integral mode      SCFMode         .... Direct
   Integral package                     .... SHARK and LIBINT hybrid scheme
 Reset frequency        DirectResetFreq ....    20
 Integral Threshold     Thresh          ....  2.500e-11 Eh
 Primitive CutOff       TCut            ....  2.500e-12 Eh

Convergence Tolerance:
 Convergence Check Mode ConvCheckMode   .... Total+1el-Energy
 Convergence forced     ConvForced      .... 1
 Energy Change          TolE            ....  1.000e-08 Eh
 1-El. energy change                    ....  1.000e-05 Eh
 Orbital Gradient       TolG            ....  1.000e-05
 Orbital Rotation angle TolX            ....  1.000e-05
 DIIS Error             TolErr          ....  5.000e-07

------------------------------
INITIAL GUESS: MODEL POTENTIAL
------------------------------
Loading Hartree-Fock densities                     ... done
Calculating cut-offs                               ... done
Initializing the effective Hamiltonian             ... done
Setting up the integral package (SHARK)            ... done
Starting the Coulomb interaction                   ... done (   1.1 sec)
Making the grid                                    ... done (  12.7 sec)
Mapping shells                                     ... done
Starting the XC term evaluation                    ... done (   1.2 sec)
  promolecular density results
     # of electrons  =    218.981384220
     EX              =   -191.096191505
     EC              =     -7.479283525
     EX+EC           =   -198.575475030
Transforming the Hamiltonian                       ... done (   4.3 sec)
Diagonalizing the Hamiltonian                      ... done (   0.2 sec)
Back transforming the eigenvectors                 ... done (   6.8 sec)
Now organizing SCF variables                       ... done
                      ------------------
                      INITIAL GUESS DONE (  60.4 sec)
                      ------------------
             **** ENERGY FILE WAS UPDATED (hbqdcp-es.en.tmp) ****
Finished Guess after 110.7 sec
Maximum memory used throughout the entire GUESS-calculation: 85.3 MB


           ************************************************************
           *        Program running with 128 parallel MPI-processes   *
           *              working on a common directory               *
           ************************************************************

-------------------------------------------------------------------------------------------
                                      ORCA LEAN-SCF
                              memory conserving SCF solver
-------------------------------------------------------------------------------------------

--------------------
CPCM SOLVATION MODEL
--------------------
CPCM parameters:
  Epsilon                                         ...      80.1510
  Refrac                                          ...       1.3328
  Rsolv                                           ...       1.3000
  Surface type                                    ... GAUSSIAN VDW
  Discretization scheme                           ... Constant charge density
    Threshold for H atoms                         ...       5.0000 (charges/Ang^2)
    Threshold for non-H atoms                     ...       5.0000 (charges/Ang^2)
  Epsilon function type                           ...         CPCM
Solvent:                                          ... WATER
Radii:
  Scheme                                          ... Element-dependent radii
  Radius for C  used is    3.8550 Bohr (=   2.0400 Ang.)
  Radius for O  used is    3.4469 Bohr (=   1.8240 Ang.)
  Radius for N  used is    3.5149 Bohr (=   1.8600 Ang.)
  Radius for H  used is    2.4944 Bohr (=   1.3200 Ang.)
  Radius for P  used is    4.0818 Bohr (=   2.1600 Ang.)
Calculating surface                               ...        done! (  0.0s)
Cavity surface points                             ...         4445
Cavity Volume                                     ...    3171.2253
Cavity Surface-area                               ...    1569.9946
Calculating surface distance matrix               ...        done! (  0.5s)
Performing Cholesky decomposition & store         ...        done! (  3.6s)
Overall time for CPCM initialization              ...                 4.2s

----------------------------------------D-I-I-S--------------------------------------------
Iteration    Energy (Eh)           Delta-E    RMSDP     MaxDP     DIISErr   Damp  Time(sec)
-------------------------------------------------------------------------------------------
               ***  Starting incremental Fock matrix formation  ***
    1    -1640.5851392978743206     0.00e+00  1.42e-03  1.14e-01  3.35e-01  0.700 153.7
Warning: op=0 Small HOMO/LUMO gap (   0.089) - skipping pre-diagonalization
         Will do a full diagonalization
    2    -1640.8979942592791303    -3.13e-01  1.19e-03  1.04e-01  1.38e-01  0.700 179.6
                               ***Turning on AO-DIIS***
    3    -1641.0303365662562101    -1.32e-01  6.40e-04  5.05e-02  4.43e-02  0.700 158.4
    4    -1641.1095595491028689    -7.92e-02  1.38e-03  1.22e-01  2.60e-02  0.000 143.5
    5    -1641.2841133478182201    -1.75e-01  2.01e-04  1.95e-02  5.06e-03  0.000 152.6
                              *** Initializing SOSCF ***
---------------------------------------S-O-S-C-F--------------------------------------
Iteration    Energy (Eh)           Delta-E    RMSDP     MaxDP     MaxGrad    Time(sec)
--------------------------------------------------------------------------------------
    6    -1641.2847661824475836    -6.53e-04  1.03e-04  1.11e-02  1.41e-03   166.7
               *** Restarting incremental Fock matrix formation ***
    7    -1641.2848733227842786    -1.07e-04  1.09e-04  1.16e-02  1.72e-03   143.1
    8    -1641.2849745011876621    -1.01e-04  1.19e-04  1.42e-02  9.53e-04   147.4
    9    -1641.2849963943131115    -2.19e-05  4.67e-05  3.28e-03  4.53e-04   151.8
   10    -1641.2850128681870956    -1.65e-05  9.37e-06  7.04e-04  1.08e-04   151.9
   11    -1641.2850133246115547    -4.56e-07  4.02e-06  3.39e-04  6.09e-05   151.6
   12    -1641.2850138855424120    -5.61e-07  3.00e-06  2.19e-04  3.34e-05   147.1
   13    -1641.2850139563356606    -7.08e-08  2.32e-06  2.50e-04  2.53e-05   155.2
   14    -1641.2850140014948011    -4.52e-08  2.00e-06  1.35e-04  1.89e-05   144.5
   15    -1641.2850140148661922    -1.34e-08  2.77e-06  2.31e-04  1.05e-05   148.5
   16    -1641.2850140053865289     9.48e-09  1.89e-06  2.38e-04  5.68e-06   149.4
                 **** Energy Check signals convergence ****

               *****************************************************
               *                     SUCCESS                       *
               *           SCF CONVERGED AFTER  16 CYCLES          *
               *****************************************************

Recomputing exchange energy using gridx3       ... done (   14.535 sec)
Old exchange energy                            :    -54.063538279 Eh
New exchange energy                            :    -54.063544109 Eh
Exchange energy change after final integration :     -0.000005829 Eh
Total energy after final integration           :  -1641.285019835 Eh
             **** ENERGY FILE WAS UPDATED (hbqdcp-es.en.tmp) ****

----------------
TOTAL SCF ENERGY
----------------

Total Energy       :      -1641.28501983480828 Eh          -44661.63594 eV

Components:
Nuclear Repulsion  :       3278.29850186517388 Eh           89207.03743 eV
Electronic Energy  :      -4919.45788367978821 Eh         -133865.25459 eV
One Electron Energy:      -8737.64704109267768 Eh         -237763.46365 eV
Two Electron Energy:       3818.18915741288947 Eh          103898.20906 eV
CPCM Dielectric    :         -0.12563219077208 Eh              -3.41863 eV

Virial components:
Potential Energy   :      -3275.90247169238955 Eh          -89141.83814 eV
Kinetic Energy     :       1634.61745185758150 Eh           44480.20219 eV
Virial Ratio       :          2.00407897760399

DFT components:
N(Alpha)           :      109.000107755481 electrons
N(Beta)            :      109.000107755481 electrons
N(Total)           :      218.000215510962 electrons
E(XC)              :     -148.459118945933 Eh       

CPCM Solvation Model Properties:
Surface-charge          :         -1.03733945056636
Corrected charge        :         -1.00000000000000
Outlying charge corr.   :          0.00006841731475 Eh               0.00186 eV
Free-energy (cav+disp)  :  This term is not implemented in the current solvation scheme

---------------
SCF CONVERGENCE
---------------

  Last Energy change         ...   -9.4797e-09  Tolerance :   1.0000e-08
  Last MAX-Density change    ...    2.3770e-04  Tolerance :   1.0000e-07
  Last RMS-Density change    ...    1.8894e-06  Tolerance :   5.0000e-09
  Last DIIS Error            ...    1.4089e-03  Tolerance :   5.0000e-07
  Last Orbital Gradient      ...    5.6811e-06  Tolerance :   1.0000e-05
  Last Orbital Rotation      ...    9.1125e-05  Tolerance :   1.0000e-05


----------------
ORBITAL ENERGIES
----------------

  NO   OCC          E(Eh)            E(eV) 
   0   2.0000     -77.300575     -2103.4556 
   1   2.0000     -19.304668      -525.3067 
   2   2.0000     -19.261747      -524.1388 
   3   2.0000     -19.260287      -524.0990 
   4   2.0000     -19.198832      -522.4268 
   5   2.0000     -19.198149      -522.4082 
   6   2.0000     -14.509232      -394.8163 
   7   2.0000     -14.447857      -393.1462 
   8   2.0000     -10.427991      -283.7601 
   9   2.0000     -10.403924      -283.1052 
  10   2.0000     -10.368057      -282.1292 
  11   2.0000     -10.351147      -281.6690 
  12   2.0000     -10.324821      -280.9527 
  13   2.0000     -10.320452      -280.8338 
  14   2.0000     -10.317891      -280.7641 
  15   2.0000     -10.314514      -280.6722 
  16   2.0000     -10.309118      -280.5254 
  17   2.0000     -10.305891      -280.4375 
  18   2.0000     -10.302207      -280.3373 
  19   2.0000     -10.290336      -280.0143 
  20   2.0000     -10.287494      -279.9369 
  21   2.0000     -10.285322      -279.8778 
  22   2.0000     -10.281655      -279.7781 
  23   2.0000     -10.280035      -279.7340 
  24   2.0000     -10.277430      -279.6631 
  25   2.0000     -10.273372      -279.5527 
  26   2.0000     -10.242684      -278.7176 
  27   2.0000     -10.241563      -278.6871 
  28   2.0000     -10.232652      -278.4446 
  29   2.0000      -6.768464      -184.1793 
  30   2.0000      -4.932152      -134.2107 
  31   2.0000      -4.931508      -134.1932 
  32   2.0000      -4.929528      -134.1393 
  33   2.0000      -1.242758       -33.8172 
  34   2.0000      -1.203766       -32.7562 
  35   2.0000      -1.144117       -31.1330 
  36   2.0000      -1.141664       -31.0663 
  37   2.0000      -1.119333       -30.4586 
  38   2.0000      -1.088743       -29.6262 
  39   2.0000      -1.051730       -28.6190 
  40   2.0000      -1.038464       -28.2580 
  41   2.0000      -0.988217       -26.8907 
  42   2.0000      -0.949666       -25.8417 
  43   2.0000      -0.909739       -24.7553 
  44   2.0000      -0.898040       -24.4369 
  45   2.0000      -0.871995       -23.7282 
  46   2.0000      -0.857356       -23.3298 
  47   2.0000      -0.852934       -23.2095 
  48   2.0000      -0.815374       -22.1875 
  49   2.0000      -0.809657       -22.0319 
  50   2.0000      -0.788359       -21.4523 
  51   2.0000      -0.775339       -21.0980 
  52   2.0000      -0.762762       -20.7558 
  53   2.0000      -0.755106       -20.5475 
  54   2.0000      -0.729909       -19.8618 
  55   2.0000      -0.728073       -19.8119 
  56   2.0000      -0.701545       -19.0900 
  57   2.0000      -0.680066       -18.5055 
  58   2.0000      -0.647265       -17.6130 
  59   2.0000      -0.644869       -17.5478 
  60   2.0000      -0.639767       -17.4089 
  61   2.0000      -0.635803       -17.3011 
  62   2.0000      -0.623559       -16.9679 
  63   2.0000      -0.620279       -16.8786 
  64   2.0000      -0.613473       -16.6934 
  65   2.0000      -0.595799       -16.2125 
  66   2.0000      -0.589317       -16.0361 
  67   2.0000      -0.587024       -15.9737 
  68   2.0000      -0.574790       -15.6408 
  69   2.0000      -0.568212       -15.4618 
  70   2.0000      -0.564268       -15.3545 
  71   2.0000      -0.559468       -15.2239 
  72   2.0000      -0.550876       -14.9901 
  73   2.0000      -0.542317       -14.7572 
  74   2.0000      -0.539203       -14.6725 
  75   2.0000      -0.529446       -14.4070 
  76   2.0000      -0.527549       -14.3553 
  77   2.0000      -0.526051       -14.3146 
  78   2.0000      -0.517371       -14.0784 
  79   2.0000      -0.507195       -13.8015 
  80   2.0000      -0.504644       -13.7321 
  81   2.0000      -0.500277       -13.6132 
  82   2.0000      -0.487905       -13.2766 
  83   2.0000      -0.483052       -13.1445 
  84   2.0000      -0.481991       -13.1156 
  85   2.0000      -0.480833       -13.0841 
  86   2.0000      -0.474217       -12.9041 
  87   2.0000      -0.471099       -12.8192 
  88   2.0000      -0.463432       -12.6106 
  89   2.0000      -0.461955       -12.5704 
  90   2.0000      -0.457860       -12.4590 
  91   2.0000      -0.455862       -12.4046 
  92   2.0000      -0.452356       -12.3092 
  93   2.0000      -0.448052       -12.1921 
  94   2.0000      -0.439211       -11.9515 
  95   2.0000      -0.433534       -11.7970 
  96   2.0000      -0.425959       -11.5909 
  97   2.0000      -0.418745       -11.3946 
  98   2.0000      -0.413557       -11.2534 
  99   2.0000      -0.406924       -11.0730 
 100   2.0000      -0.406424       -11.0594 
 101   2.0000      -0.393628       -10.7112 
 102   2.0000      -0.389872       -10.6090 
 103   2.0000      -0.378741       -10.3061 
 104   2.0000      -0.347456        -9.4548 
 105   2.0000      -0.340948        -9.2777 
 106   2.0000      -0.337860        -9.1936 
 107   2.0000      -0.327736        -8.9182 
 108   2.0000      -0.234238        -6.3739 
 109   0.0000      -0.100252        -2.7280 
 110   0.0000      -0.070191        -1.9100 
 111   0.0000      -0.015152        -0.4123 
 112   0.0000       0.029625         0.8061 
 113   0.0000       0.054560         1.4847 
 114   0.0000       0.064159         1.7458 
 115   0.0000       0.072477         1.9722 
 116   0.0000       0.077754         2.1158 
 117   0.0000       0.082133         2.2350 
 118   0.0000       0.086125         2.3436 
 119   0.0000       0.093380         2.5410 
*Only the first 10 virtual orbitals were printed.

                    ********************************
                    * MULLIKEN POPULATION ANALYSIS *
                    ********************************

-----------------------
MULLIKEN ATOMIC CHARGES
-----------------------
   0 C :   -0.352173
   1 C :   -0.127479
   2 C :   -0.115710
   3 C :   -0.142879
   4 C :    0.338587
   5 C :    0.198580
   6 O :   -0.465703
   7 C :    0.128881
   8 C :   -0.215874
   9 C :   -0.154155
  10 C :    0.092245
  11 C :    0.279579
  12 N :   -0.318382
  13 C :    0.101034
  14 C :   -0.088717
  15 C :   -0.116041
  16 C :    0.709222
  17 O :   -0.584115
  18 N :   -0.217341
  19 C :   -0.289099
  20 C :   -0.300441
  21 H :    0.162120
  22 H :    0.170002
  23 H :    0.159442
  24 H :    0.163535
  25 H :    0.165539
  26 H :    0.158501
  27 H :    0.126166
  28 H :    0.139888
  29 H :    0.146670
  30 H :    0.147474
  31 H :    0.164659
  32 H :    0.204389
  33 H :    0.164822
  34 H :    0.173649
  35 P :    1.631997
  36 O :   -0.771971
  37 O :   -0.557950
  38 O :   -0.565905
  39 C :   -0.026678
  40 C :   -0.043536
  41 C :   -0.405891
  42 H :    0.157759
  43 H :    0.159729
  44 H :    0.147627
  45 H :    0.149773
  46 H :    0.158270
  47 C :   -0.386932
  48 H :    0.150442
  49 H :    0.154763
  50 H :    0.156671
  51 H :    0.138900
  52 H :    0.146055
Sum of atomic charges:    1.0000000

--------------------------------
MULLIKEN REDUCED ORBITAL CHARGES
--------------------------------
  0 C s       :     3.556899  s :     3.556899
      pz      :     0.687510  p :     2.751202
      px      :     1.258146
      py      :     0.805547
      dz2     :     0.004475  d :     0.044072
      dxz     :     0.013727
      dyz     :     0.011616
      dx2y2   :     0.008781
      dxy     :     0.005473

  1 C s       :     3.173208  s :     3.173208
      pz      :     0.992849  p :     2.848936
      px      :     0.925971
      py      :     0.930116
      dz2     :     0.015383  d :     0.105335
      dxz     :     0.018175
      dyz     :     0.007795
      dx2y2   :     0.021538
      dxy     :     0.042445

  2 C s       :     3.333328  s :     3.333328
      pz      :     0.757066  p :     2.715569
      px      :     1.089189
      py      :     0.869315
      dz2     :     0.011626  d :     0.066812
      dxz     :     0.009507
      dyz     :     0.015628
      dx2y2   :     0.026280
      dxy     :     0.003771

  3 C s       :     3.175930  s :     3.175930
      pz      :     0.921420  p :     2.859831
      px      :     0.962350
      py      :     0.976060
      dz2     :     0.014544  d :     0.107118
      dxz     :     0.027775
      dyz     :     0.016782
      dx2y2   :     0.020049
      dxy     :     0.027968

  4 C s       :     3.194312  s :     3.194312
      pz      :     0.706165  p :     2.259054
      px      :     0.775712
      py      :     0.777177
      dz2     :     0.063655  d :     0.208047
      dxz     :     0.043773
      dyz     :     0.028268
      dx2y2   :     0.039092
      dxy     :     0.033258

  5 C s       :     3.115984  s :     3.115984
      pz      :     0.722242  p :     2.555847
      px      :     0.981939
      py      :     0.851666
      dz2     :     0.025647  d :     0.129590
      dxz     :     0.036387
      dyz     :     0.026312
      dx2y2   :     0.017979
      dxy     :     0.023265

  6 O s       :     3.861783  s :     3.861783
      pz      :     1.338291  p :     4.561686
      px      :     1.595452
      py      :     1.627943
      dz2     :     0.007062  d :     0.042234
      dxz     :     0.016021
      dyz     :     0.007579
      dx2y2   :     0.005325
      dxy     :     0.006248

  7 C s       :     3.141295  s :     3.141295
      pz      :     0.913563  p :     2.559983
      px      :     0.795709
      py      :     0.850711
      dz2     :     0.024852  d :     0.169841
      dxz     :     0.030577
      dyz     :     0.036462
      dx2y2   :     0.046388
      dxy     :     0.031563

  8 C s       :     3.241391  s :     3.241391
      pz      :     1.002921  p :     2.894648
      px      :     0.954021
      py      :     0.937706
      dz2     :     0.014241  d :     0.079835
      dxz     :     0.023867
      dyz     :     0.010479
      dx2y2   :     0.014170
      dxy     :     0.017078

  9 C s       :     3.262403  s :     3.262403
      pz      :     0.891545  p :     2.801884
      px      :     0.978177
      py      :     0.932161
      dz2     :     0.011789  d :     0.089868
      dxz     :     0.020696
      dyz     :     0.013221
      dx2y2   :     0.027577
      dxy     :     0.016584

 10 C s       :     3.132809  s :     3.132809
      pz      :     0.809306  p :     2.578827
      px      :     1.029307
      py      :     0.740214
      dz2     :     0.032799  d :     0.196119
      dxz     :     0.023147
      dyz     :     0.039959
      dx2y2   :     0.053869
      dxy     :     0.046345

 11 C s       :     3.060000  s :     3.060000
      pz      :     0.858211  p :     2.526282
      px      :     0.805680
      py      :     0.862390
      dz2     :     0.029147  d :     0.134139
      dxz     :     0.030042
      dyz     :     0.017985
      dx2y2   :     0.031562
      dxy     :     0.025403

 12 N s       :     3.496490  s :     3.496490
      pz      :     1.386911  p :     3.740783
      px      :     1.201644
      py      :     1.152228
      dz2     :     0.007415  d :     0.081110
      dxz     :     0.012094
      dyz     :     0.014174
      dx2y2   :     0.018943
      dxy     :     0.028484

 13 C s       :     3.149200  s :     3.149200
      pz      :     0.890858  p :     2.635269
      px      :     0.798550
      py      :     0.945862
      dz2     :     0.013075  d :     0.114496
      dxz     :     0.031196
      dyz     :     0.015987
      dx2y2   :     0.030216
      dxy     :     0.024022

 14 C s       :     3.177847  s :     3.177847
      pz      :     0.943601  p :     2.839947
      px      :     0.949701
      py      :     0.946645
      dz2     :     0.012852  d :     0.070923
      dxz     :     0.013370
      dyz     :     0.011079
      dx2y2   :     0.014629
      dxy     :     0.018993

 15 C s       :     3.231864  s :     3.231864
      pz      :     0.895512  p :     2.795787
      px      :     0.988588
      py      :     0.911688
      dz2     :     0.014318  d :     0.088390
      dxz     :     0.014559
      dyz     :     0.014641
      dx2y2   :     0.022096
      dxy     :     0.022777

 16 C s       :     2.803637  s :     2.803637
      pz      :     0.681410  p :     2.173980
      px      :     0.690828
      py      :     0.801742
      dz2     :     0.049094  d :     0.313162
      dxz     :     0.122246
      dyz     :     0.038058
      dx2y2   :     0.028328
      dxy     :     0.075436

 17 O s       :     3.881411  s :     3.881411
      pz      :     1.753697  p :     4.668856
      px      :     1.385208
      py      :     1.529951
      dz2     :     0.003631  d :     0.033848
      dxz     :     0.007558
      dyz     :     0.000423
      dx2y2   :     0.010233
      dxy     :     0.012003

 18 N s       :     3.440366  s :     3.440366
      pz      :     1.115931  p :     3.689171
      px      :     1.103746
      py      :     1.469494
      dz2     :     0.018529  d :     0.087804
      dxz     :     0.027182
      dyz     :     0.015148
      dx2y2   :     0.012016
      dxy     :     0.014929

 19 C s       :     3.255674  s :     3.255674
      pz      :     0.838133  p :     2.967394
      px      :     1.065158
      py      :     1.064102
      dz2     :     0.014890  d :     0.066031
      dxz     :     0.011035
      dyz     :     0.021830
      dx2y2   :     0.010201
      dxy     :     0.008076

 20 C s       :     3.264851  s :     3.264851
      pz      :     1.119232  p :     2.967606
      px      :     0.753175
      py      :     1.095198
      dz2     :     0.009224  d :     0.067984
      dxz     :     0.011449
      dyz     :     0.008700
      dx2y2   :     0.012621
      dxy     :     0.025991

 21 H s       :     0.815319  s :     0.815319
      pz      :     0.011483  p :     0.022560
      px      :     0.003476
      py      :     0.007601

 22 H s       :     0.806043  s :     0.806043
      pz      :     0.012176  p :     0.023955
      px      :     0.004188
      py      :     0.007591

 23 H s       :     0.818044  s :     0.818044
      pz      :     0.004276  p :     0.022514
      px      :     0.006332
      py      :     0.011906

 24 H s       :     0.812336  s :     0.812336
      pz      :     0.003586  p :     0.024129
      px      :     0.015556
      py      :     0.004987

 25 H s       :     0.812021  s :     0.812021
      pz      :     0.009362  p :     0.022440
      px      :     0.004107
      py      :     0.008971

 26 H s       :     0.819048  s :     0.819048
      pz      :     0.004131  p :     0.022450
      px      :     0.006561
      py      :     0.011759

 27 H s       :     0.847290  s :     0.847290
      pz      :     0.010613  p :     0.026543
      px      :     0.004894
      py      :     0.011036

 28 H s       :     0.832121  s :     0.832121
      pz      :     0.015998  p :     0.027990
      px      :     0.007514
      py      :     0.004479

 29 H s       :     0.823920  s :     0.823920
      pz      :     0.005651  p :     0.029410
      px      :     0.006308
      py      :     0.017451

 30 H s       :     0.826359  s :     0.826359
      pz      :     0.009341  p :     0.026167
      px      :     0.004228
      py      :     0.012598

 31 H s       :     0.809349  s :     0.809349
      pz      :     0.011035  p :     0.025993
      px      :     0.009928
      py      :     0.005029

 32 H s       :     0.769235  s :     0.769235
      pz      :     0.006684  p :     0.026377
      px      :     0.002807
      py      :     0.016885

 33 H s       :     0.808544  s :     0.808544
      pz      :     0.004180  p :     0.026634
      px      :     0.015540
      py      :     0.006913

 34 H s       :     0.800581  s :     0.800581
      pz      :     0.009770  p :     0.025770
      px      :     0.010547
      py      :     0.005452

 35 P s       :     4.688438  s :     4.688438
      pz      :     2.589180  p :     7.857277
      px      :     2.634421
      py      :     2.633677
      dz2     :     0.140112  d :     0.822287
      dxz     :     0.207699
      dyz     :     0.129814
      dx2y2   :     0.164808
      dxy     :     0.179855

 36 O s       :     3.918445  s :     3.918445
      pz      :     1.678581  p :     4.822014
      px      :     1.498285
      py      :     1.645149
      dz2     :     0.002981  d :     0.031512
      dxz     :     0.008539
      dyz     :     0.001925
      dx2y2   :     0.009458
      dxy     :     0.008609

 37 O s       :     3.842687  s :     3.842687
      pz      :     1.468149  p :     4.683545
      px      :     1.737377
      py      :     1.478019
      dz2     :     0.010493  d :     0.031718
      dxz     :     0.007151
      dyz     :     0.004978
      dx2y2   :     0.004899
      dxy     :     0.004197

 38 O s       :     3.840628  s :     3.840628
      pz      :     1.444287  p :     4.693245
      px      :     1.686348
      py      :     1.562610
      dz2     :     0.005901  d :     0.032031
      dxz     :     0.007617
      dyz     :     0.006202
      dx2y2   :     0.007280
      dxy     :     0.005031

 39 C s       :     3.178198  s :     3.178198
      pz      :     1.005077  p :     2.728435
      px      :     1.032956
      py      :     0.690402
      dz2     :     0.013468  d :     0.120045
      dxz     :     0.024617
      dyz     :     0.024878
      dx2y2   :     0.025003
      dxy     :     0.032079

 40 C s       :     3.195004  s :     3.195004
      pz      :     0.701310  p :     2.732074
      px      :     0.960949
      py      :     1.069816
      dz2     :     0.036882  d :     0.116458
      dxz     :     0.022051
      dyz     :     0.023530
      dx2y2   :     0.016516
      dxy     :     0.017479

 41 C s       :     3.263424  s :     3.263424
      pz      :     1.064592  p :     3.092132
      px      :     0.940271
      py      :     1.087269
      dz2     :     0.004446  d :     0.050335
      dxz     :     0.017610
      dyz     :     0.008607
      dx2y2   :     0.013805
      dxy     :     0.005867

 42 H s       :     0.820148  s :     0.820148
      pz      :     0.010793  p :     0.022092
      px      :     0.009161
      py      :     0.002139

 43 H s       :     0.817760  s :     0.817760
      pz      :     0.008736  p :     0.022511
      px      :     0.005214
      py      :     0.008561

 44 H s       :     0.829337  s :     0.829337
      pz      :     0.010134  p :     0.023035
      px      :     0.008575
      py      :     0.004326

 45 H s       :     0.827117  s :     0.827117
      pz      :     0.008829  p :     0.023110
      px      :     0.004895
      py      :     0.009386

 46 H s       :     0.818636  s :     0.818636
      pz      :     0.006704  p :     0.023093
      px      :     0.003767
      py      :     0.012622

 47 C s       :     3.244273  s :     3.244273
      pz      :     0.989792  p :     3.091689
      px      :     1.027319
      py      :     1.074578
      dz2     :     0.009289  d :     0.050970
      dxz     :     0.013133
      dyz     :     0.006979
      dx2y2   :     0.011305
      dxy     :     0.010265

 48 H s       :     0.826902  s :     0.826902
      pz      :     0.002620  p :     0.022656
      px      :     0.013198
      py      :     0.006838

 49 H s       :     0.823206  s :     0.823206
      pz      :     0.002227  p :     0.022031
      px      :     0.004261
      py      :     0.015544

 50 H s       :     0.820291  s :     0.820291
      pz      :     0.012000  p :     0.023038
      px      :     0.005813
      py      :     0.005225

 51 H s       :     0.838220  s :     0.838220
      pz      :     0.003853  p :     0.022880
      px      :     0.012288
      py      :     0.006740

 52 H s       :     0.830894  s :     0.830894
      pz      :     0.004034  p :     0.023051
      px      :     0.004560
      py      :     0.014457



                     *******************************
                     * LOEWDIN POPULATION ANALYSIS *
                     *******************************

----------------------
LOEWDIN ATOMIC CHARGES
----------------------
   0 C :   -0.318672
[...]
139:   3106.21   0.002214   11.19  0.000222  ( 0.010335 -0.010203 -0.003385)
140:   3110.14   0.002178   11.01  0.000219  (-0.010379 -0.009790  0.003873)
141:   3113.76   0.007147   36.12  0.000716  ( 0.004902  0.024216  0.010287)
142:   3117.23   0.000209    1.06  0.000021  (-0.000598  0.003200  0.003219)
143:   3126.08   0.005389   27.23  0.000538  ( 0.011183  0.015880 -0.012678)
144:   3127.62   0.005087   25.71  0.000508  ( 0.013149 -0.015972 -0.008922)
145:   3130.93   0.002596   13.12  0.000259  ( 0.012629  0.009198 -0.003824)
146:   3136.97   0.002478   12.52  0.000247  ( 0.003197  0.011428  0.010282)
147:   3171.21   0.002465   12.46  0.000243  ( 0.005381  0.014437 -0.002282)
148:   3177.62   0.002308   11.66  0.000227  (-0.003175  0.006240  0.013329)
149:   3193.96   0.000352    1.78  0.000034  (-0.005341  0.001824 -0.001584)
150:   3195.36   0.002332   11.79  0.000228  ( 0.006514  0.010470 -0.008703)
151:   3204.53   0.000901    4.55  0.000088  ( 0.002610 -0.005565  0.007068)
152:   3209.06   0.000152    0.77  0.000015  (-0.003058 -0.000254 -0.002307)
153:   3219.32   0.000118    0.59  0.000011  ( 0.002966 -0.000677  0.001464)
154:   3232.11   0.000440    2.22  0.000042  (-0.004909  0.001161 -0.004125)
155:   3234.30   0.000452    2.29  0.000044  (-0.003567 -0.004653 -0.003043)
156:   3248.82   0.001585    8.01  0.000152  ( 0.011297  0.000216  0.004962)
157:   3250.83   0.000292    1.48  0.000028  ( 0.003538 -0.002540  0.003012)
158:   3266.77   0.006310   31.89  0.000603  (-0.009633 -0.021691  0.006284)

* The epsilon (eps) is given for a Dirac delta lineshape.
** The dipole moment derivative (T) already includes vibrational overlap.

The first frequency considered to be a vibration is 6
The total number of vibrations considered is 153


--------------------------
THERMOCHEMISTRY AT 298.15K
--------------------------

Temperature         ...   298.15 K
Pressure            ...     1.00 atm
Total Mass          ...   415.41 AMU
Quasi RRHO          ...     True
Cut-Off Frequency   ...     1.00 cm^-1

Throughout the following assumptions are being made:
  (1) The electronic state is orbitally nondegenerate
  (2) There are no thermally accessible electronically excited states
  (3) Hindered rotations indicated by low frequency modes are not
      treated as such but are treated as vibrations and this may
      cause some error
  (4) All equations used are the standard statistical mechanics
      equations for an ideal gas
  (5) All vibrations are strictly harmonic

freq.      19.68  E(vib)   ...       0.56 
freq.      26.52  E(vib)   ...       0.56 
freq.      39.23  E(vib)   ...       0.54 
freq.      42.71  E(vib)   ...       0.53 
freq.      47.55  E(vib)   ...       0.53 
freq.      59.13  E(vib)   ...       0.51 
freq.      69.76  E(vib)   ...       0.50 
freq.      72.69  E(vib)   ...       0.49 
freq.      84.54  E(vib)   ...       0.48 
freq.      99.42  E(vib)   ...       0.46 
freq.     105.00  E(vib)   ...       0.46 
freq.     108.32  E(vib)   ...       0.45 
freq.     125.08  E(vib)   ...       0.43 
freq.     129.12  E(vib)   ...       0.43 
freq.     143.17  E(vib)   ...       0.41 
freq.     155.21  E(vib)   ...       0.40 
freq.     178.23  E(vib)   ...       0.37 
freq.     189.76  E(vib)   ...       0.36 
freq.     204.48  E(vib)   ...       0.35 
freq.     224.62  E(vib)   ...       0.33 
freq.     231.03  E(vib)   ...       0.32 
freq.     236.62  E(vib)   ...       0.32 
freq.     248.27  E(vib)   ...       0.31 
freq.     254.64  E(vib)   ...       0.30 
freq.     267.69  E(vib)   ...       0.29 
freq.     292.67  E(vib)   ...       0.27 
freq.     310.70  E(vib)   ...       0.26 
freq.     314.82  E(vib)   ...       0.25 
freq.     353.16  E(vib)   ...       0.22 
freq.     380.35  E(vib)   ...       0.21 
freq.     386.98  E(vib)   ...       0.20 
freq.     391.70  E(vib)   ...       0.20 
freq.     414.02  E(vib)   ...       0.19 
freq.     420.80  E(vib)   ...       0.18 
freq.     441.57  E(vib)   ...       0.17 
freq.     449.36  E(vib)   ...       0.17 
freq.     462.07  E(vib)   ...       0.16 
freq.     488.92  E(vib)   ...       0.15 
freq.     502.66  E(vib)   ...       0.14 
freq.     511.49  E(vib)   ...       0.14 
freq.     525.20  E(vib)   ...       0.13 
freq.     544.19  E(vib)   ...       0.12 
freq.     563.44  E(vib)   ...       0.11 
freq.     570.63  E(vib)   ...       0.11 
freq.     606.31  E(vib)   ...       0.10 
freq.     618.54  E(vib)   ...       0.09 
freq.     637.22  E(vib)   ...       0.09 
freq.     656.61  E(vib)   ...       0.08 
freq.     663.83  E(vib)   ...       0.08 
freq.     708.27  E(vib)   ...       0.07 
freq.     723.25  E(vib)   ...       0.07 
freq.     752.62  E(vib)   ...       0.06 
freq.     762.84  E(vib)   ...       0.06 
freq.     780.97  E(vib)   ...       0.05 
freq.     785.32  E(vib)   ...       0.05 
freq.     788.15  E(vib)   ...       0.05 
freq.     800.75  E(vib)   ...       0.05 
freq.     809.44  E(vib)   ...       0.05 
freq.     817.26  E(vib)   ...       0.05 
freq.     820.76  E(vib)   ...       0.05 
freq.     836.05  E(vib)   ...       0.04 
freq.     854.15  E(vib)   ...       0.04 
freq.     866.55  E(vib)   ...       0.04 
freq.     904.86  E(vib)   ...       0.03 
freq.     937.71  E(vib)   ...       0.03 
freq.     941.47  E(vib)   ...       0.03 
freq.     953.70  E(vib)   ...       0.03 
freq.     977.96  E(vib)   ...       0.03 
freq.     978.79  E(vib)   ...       0.03 
freq.     979.75  E(vib)   ...       0.02 
freq.     995.18  E(vib)   ...       0.02 
freq.    1012.83  E(vib)   ...       0.02 
freq.    1026.65  E(vib)   ...       0.02 
freq.    1038.65  E(vib)   ...       0.02 
freq.    1039.31  E(vib)   ...       0.02 
freq.    1063.28  E(vib)   ...       0.02 
freq.    1066.65  E(vib)   ...       0.02 
freq.    1081.30  E(vib)   ...       0.02 
freq.    1097.46  E(vib)   ...       0.02 
freq.    1118.27  E(vib)   ...       0.01 
freq.    1119.47  E(vib)   ...       0.01 
freq.    1132.56  E(vib)   ...       0.01 
freq.    1135.17  E(vib)   ...       0.01 
freq.    1139.43  E(vib)   ...       0.01 
freq.    1167.72  E(vib)   ...       0.01 
freq.    1170.64  E(vib)   ...       0.01 
freq.    1179.18  E(vib)   ...       0.01 
freq.    1182.01  E(vib)   ...       0.01 
freq.    1186.99  E(vib)   ...       0.01 
freq.    1190.95  E(vib)   ...       0.01 
freq.    1228.34  E(vib)   ...       0.01 
freq.    1238.43  E(vib)   ...       0.01 
freq.    1256.11  E(vib)   ...       0.01 
freq.    1266.55  E(vib)   ...       0.01 
freq.    1275.78  E(vib)   ...       0.01 
freq.    1286.20  E(vib)   ...       0.01 
freq.    1304.70  E(vib)   ...       0.01 
freq.    1305.72  E(vib)   ...       0.01 
freq.    1317.78  E(vib)   ...       0.01 
freq.    1319.54  E(vib)   ...       0.01 
freq.    1346.27  E(vib)   ...       0.01 
freq.    1363.87  E(vib)   ...       0.01 
freq.    1408.33  E(vib)   ...       0.00 
freq.    1411.49  E(vib)   ...       0.00 
freq.    1423.76  E(vib)   ...       0.00 
freq.    1423.81  E(vib)   ...       0.00 
freq.    1424.21  E(vib)   ...       0.00 
freq.    1444.66  E(vib)   ...       0.00 
freq.    1449.22  E(vib)   ...       0.00 
freq.    1467.16  E(vib)   ...       0.00 
freq.    1468.01  E(vib)   ...       0.00 
freq.    1478.73  E(vib)   ...       0.00 
freq.    1479.00  E(vib)   ...       0.00 
freq.    1483.33  E(vib)   ...       0.00 
freq.    1486.65  E(vib)   ...       0.00 
freq.    1487.55  E(vib)   ...       0.00 
freq.    1488.17  E(vib)   ...       0.00 
freq.    1490.53  E(vib)   ...       0.00 
freq.    1496.86  E(vib)   ...       0.00 
freq.    1499.03  E(vib)   ...       0.00 
freq.    1511.73  E(vib)   ...       0.00 
freq.    1513.88  E(vib)   ...       0.00 
freq.    1530.20  E(vib)   ...       0.00 
freq.    1559.16  E(vib)   ...       0.00 
freq.    1562.85  E(vib)   ...       0.00 
freq.    1625.98  E(vib)   ...       0.00 
freq.    1635.03  E(vib)   ...       0.00 
freq.    1742.10  E(vib)   ...       0.00 
freq.    2449.25  E(vib)   ...       0.00 
freq.    3050.54  E(vib)   ...       0.00 
freq.    3050.85  E(vib)   ...       0.00 
freq.    3052.48  E(vib)   ...       0.00 
freq.    3053.85  E(vib)   ...       0.00 
freq.    3106.21  E(vib)   ...       0.00 
freq.    3110.14  E(vib)   ...       0.00 
freq.    3113.76  E(vib)   ...       0.00 
freq.    3117.23  E(vib)   ...       0.00 
freq.    3126.08  E(vib)   ...       0.00 
freq.    3127.62  E(vib)   ...       0.00 
freq.    3130.93  E(vib)   ...       0.00 
freq.    3136.97  E(vib)   ...       0.00 
freq.    3171.21  E(vib)   ...       0.00 
freq.    3177.62  E(vib)   ...       0.00 
freq.    3193.96  E(vib)   ...       0.00 
freq.    3195.36  E(vib)   ...       0.00 
freq.    3204.53  E(vib)   ...       0.00 
freq.    3209.06  E(vib)   ...       0.00 
freq.    3219.32  E(vib)   ...       0.00 
freq.    3232.11  E(vib)   ...       0.00 
freq.    3234.30  E(vib)   ...       0.00 
freq.    3248.82  E(vib)   ...       0.00 
freq.    3250.83  E(vib)   ...       0.00 
freq.    3266.77  E(vib)   ...       0.00 

------------
INNER ENERGY
------------

The inner energy is: U= E(el) + E(ZPE) + E(vib) + E(rot) + E(trans)
    E(el)   - is the total energy from the electronic structure calculation
              = E(kin-el) + E(nuc-el) + E(el-el) + E(nuc-nuc)
    E(ZPE)  - the the zero temperature vibrational energy from the frequency calculation
    E(vib)  - the the finite temperature correction to E(ZPE) due to population
              of excited vibrational states
    E(rot)  - is the rotational thermal energy
    E(trans)- is the translational thermal energy

Summary of contributions to the inner energy U:
Electronic energy                ...  -1641.25967484 Eh
Zero point energy                ...      0.42721224 Eh     268.08 kcal/mol
Thermal vibrational correction   ...      0.02532971 Eh      15.89 kcal/mol
Thermal rotational correction    ...      0.00141627 Eh       0.89 kcal/mol
Thermal translational correction ...      0.00141627 Eh       0.89 kcal/mol
-----------------------------------------------------------------------
Total thermal energy                  -1640.80430035 Eh


Summary of corrections to the electronic energy:
(perhaps to be used in another calculation)
Total thermal correction                  0.02816225 Eh      17.67 kcal/mol
Non-thermal (ZPE) correction              0.42721224 Eh     268.08 kcal/mol
-----------------------------------------------------------------------
Total correction                          0.45537449 Eh     285.75 kcal/mol


--------
ENTHALPY
--------

The enthalpy is H = U + kB*T
                kB is Boltzmann's constant
Total thermal energy              ...  -1640.80430035 Eh 
Thermal Enthalpy correction       ...      0.00094421 Eh       0.59 kcal/mol
-----------------------------------------------------------------------
Total Enthalpy                    ...  -1640.80335614 Eh


Note: Only C1 symmetry has been detected, increase convergence thresholds 
      if your molecule has a higher symmetry. Symmetry factor of 1.0 is   
      used for the rotational entropy correction. 
 

Note: Rotational entropy computed according to Herzberg 
Infrared and Raman Spectra, Chapter V,1, Van Nostrand Reinhold, 1945 
Point Group:  C1, Symmetry Number:   1  
Rotational constants in cm-1:     0.006345     0.006019     0.004089 

Vibrational entropy computed according to the QRRHO of S. Grimme
Chem.Eur.J. 2012 18 9955 using a reference frequency of 100.0 cm-1


-------
ENTROPY
-------

The entropy contributions are T*S = T*(S(el)+S(vib)+S(rot)+S(trans))
     S(el)   - electronic entropy
     S(vib)  - vibrational entropy
     S(rot)  - rotational entropy
     S(trans)- translational entropy
The entropies will be listed as multiplied by the temperature to get
units of energy

Electronic entropy                ...      0.00000000 Eh      0.00 kcal/mol
Vibrational entropy               ...      0.04542672 Eh     28.51 kcal/mol
Rotational entropy                ...      0.01690953 Eh     10.61 kcal/mol
Translational entropy             ...      0.02088813 Eh     13.11 kcal/mol
-----------------------------------------------------------------------
Final entropy term                ...      0.08322439 Eh     52.22 kcal/mol

In case the symmetry of your molecule has not been determined correctly
or in case you have a reason to use a different symmetry number we print 
out the resulting rotational entropy values for sn=1,12:

 non-linear molecules -----------------------------------
|  sn= 1 | S(rot)=       0.01690953 Eh     10.61 kcal/mol|
|  sn= 2 | S(rot)=       0.01625508 Eh     10.20 kcal/mol|
|  sn= 3 | S(rot)=       0.01587224 Eh      9.96 kcal/mol|
|  sn= 4 | S(rot)=       0.01560062 Eh      9.79 kcal/mol|
|  sn= 5 | S(rot)=       0.01538993 Eh      9.66 kcal/mol|
|  sn= 6 | S(rot)=       0.01521779 Eh      9.55 kcal/mol|
|  sn= 7 | S(rot)=       0.01507224 Eh      9.46 kcal/mol|
|  sn= 8 | S(rot)=       0.01494616 Eh      9.38 kcal/mol|
|  sn= 9 | S(rot)=       0.01483496 Eh      9.31 kcal/mol|
|  sn=10 | S(rot)=       0.01473548 Eh      9.25 kcal/mol|
|  sn=11 | S(rot)=       0.01464549 Eh      9.19 kcal/mol|
|  sn=12 | S(rot)=       0.01456333 Eh      9.14 kcal/mol|
 linear molecules ---------------------------------------
|  Dinfh | S(rot)=       0.01051827 Eh      6.60 kcal/mol|
|  Cinfv | S(rot)=       0.01117273 Eh      7.01 kcal/mol|
 --------------------------------------------------------


-------------------
GIBBS FREE ENERGY
-------------------

The Gibbs free energy is G = H - T*S

Total enthalpy                    ...  -1640.80335614 Eh 
Total entropy correction          ...     -0.08322439 Eh    -52.22 kcal/mol
-----------------------------------------------------------------------
Final Gibbs free energy         ...  -1640.88658052 Eh

For completeness - the Gibbs free energy minus the electronic energy
G-E(el)                           ...      0.37309432 Eh    234.12 kcal/mol



--------------------------------
SUGGESTED CITATIONS FOR THIS RUN
--------------------------------

Below you find a list of papers that are relevant to this ORCA run
We neither can nor want to force you to cite these papers, but we appreciate if you do
You receive ORCA, which is the product of decades of hard work by many enthusiastic individuals, for free
The only thing we kindly ask in return is that you cite our papers,
We deeply appreciate it, if you show your appreciation for ORCA by not just citing the generic ORCA reference.

Please note that relegating all ORCA citations to the supporting information does *not* help us.
SI sections are not indexed - citations you put there will not count into any citation statistics
But we need these citations in order to attract the funding resources that allow us to do what we are doing

Therefore, if you are a happy ORCA user, please consider citing a few of the papers listed below in the main body of your paper

In addition to the list printed below, the program has created the file hbqdcp-es.bibtex that contains the list in bibtex format
You can import this file easily into all common literature databanks and citation aid programs


List of essential papers. We consider these as the minimum necessary citations

  1. Neese,F.
     Software update: the ORCA program system, version 5.0
     WIRES Comput. Molec. Sci., 2022 12(1)e1606
     doi.org/10.1002/wcms.1606

List of papers to cite with high priority. The work reported in these papers was absolutely
necessary for this run to complete.
Our perspective: the developers of density functionals and basis sets usually get cited in chemistry papers
Good! But without the algorithms to do something with them, the functionals or basis sets would not do anything.
Hence, in our opinion, the algorithm design and method developments papers are equally worthy of getting cited

  1. Neese,F.; Olbrich,G.
     Efficient use of the resolution of the identity approximation in time-dependent density functional calculations with hybrid density functionals
     Chem. Phys. Lett., 2002 362 170-178
     doi.org/10.1016/s0009-2614(02)01053-9
  2. Neese,F.
     An improvement of the resolution of the identity approximation for the formation of the Coulomb matrix
     J. Comp. Chem., 2003 24(14)1740-1747
     doi.org/10.1002/jcc.10318
  3. Neese,F.; Wennmohs,F.; Hansen,A.; Becker,U.
     Efficient, approximate and parallel Hartree-Fock and hybrid DFT calculations. A 'chain-of-spheres' algorithm for the Hartree-Fock exchange
     Chem. Phys., 2009 356(1-3)98-109
     doi.org/10.1016/j.chemphys.2008.10.036
  4. Petrenko,T.; Kossmann,S.; Neese,F.
     Efficient time-dependent density functional theory approximations for hybrid density functionals: Analytical gradients and parallelization
     J. Chem. Phys., 2011 134 054116
     doi.org/10.1063/1.3533441
  5. Bykov,D.; Petrenko,T.; Izsak,R.; Kossmann,S.; Becker,U.; Valeev,E.; Neese,F.
     Efficient implementation of the analytic second derivatives of Hartree-Fock and hybrid DFT energies: a detailed analysis of different approximations
     Molec. Phys., 2015 113 1961-1977
     doi.org/10.1080/00268976.2015.1025114
  6. Garcia-Rates,M.; Neese,F.
     Effect of the Solute Cavity on the Solvation Energy and its Derivatives within the Framework of the Gaussian Charge Scheme
     J. Comput. Chem., 2020 41 922-939
     doi.org/10.1002/jcc.26139
  7. Helmich-Paris,B.; de Souza,B.; Neese,F.; Izsák,R.
     An improved chain of spheres for exchange algorithm
     J. Chem. Phys., 2021 155 104109
     doi.org/doi: 10.1063/5.0058766.
  8. Neese,F.
     The SHARK Integral Generation and Digestion System
     J. Comp. Chem., 2022  1-16
     doi.org/10.1002/jcc.26942

List of suggested additional citations. These are papers that are important in the 'surrounding' of 
of this run, or papers that preceded the highly important papers. If you like your results we are grateful for a citation.

  1. Izsak,R.; Neese,F.
     An overlap fitted chain of spheres exchange method
     J. Chem. Phys., 2011 135 144105
     doi.org/10.1063/1.3646921
  2. Izsak,R.; Hansen,A.; Neese,F.
     The resolution of identity and chain of spheres approximations for the LPNO-CCSD singles Fock term
     Molec. Phys., 2012 110 2413-2417
     doi.org/10.1080/00268976.2012.687466
  3. Neese,F.
     The ORCA program system
     WIRES Comput. Molec. Sci., 2012 2(1)73-78
     doi.org/10.1002/wcms.81
  4. Izsak,R.; Neese,F.; Klopper,W.
     Robust fitting techniques in the chain of spheres approximation to the Fock exchange: The role of the complementary space
     J. Chem. Phys., 2013 139 
     doi.org/10.1063/1.4819264
  5. Neese,F.
     Software update: the ORCA program system, version 4.0
     WIRES Comput. Molec. Sci., 2018 8(1)1-6
     doi.org/10.1002/wcms.1327
  6. Neese,F.; Wennmohs,F.; Becker,U.; Riplinger,C.
     The ORCA quantum chemistry program package
     J. Chem. Phys., 2020 152 Art. No. L224108
     doi.org/10.1063/5.0004608

List of optional additional citations

  1. Neese,F.
     Approximate second-order SCF convergence for spin unrestricted wavefunctions
     Chem. Phys. Lett., 2000 325(1-3)93-98
     doi.org/10.1016/s0009-2614(00)00662-x

Timings for individual modules:

Sum of individual times          ...    41562.197 sec (= 692.703 min)
Startup calculation              ...      211.513 sec (=   3.525 min)   0.5 %
SCF iterations                   ...     5607.300 sec (=  93.455 min)  13.5 %
Property integrals               ...       76.318 sec (=   1.272 min)   0.2 %
Property calculations            ...       61.448 sec (=   1.024 min)   0.1 %
CIS module                       ...     4458.439 sec (=  74.307 min)  10.7 %
Numerical frequency calculation  ...    31147.179 sec (= 519.120 min)  74.9 %
                             ****ORCA TERMINATED NORMALLY****
TOTAL RUN TIME: 0 days 10 hours 7 minutes 34 seconds 143 msec
