
                                 *****************
                                 * O   R   C   A *
                                 *****************

                                            #,                                       
                                            ###                                      
                                            ####                                     
                                            #####                                    
                                            ######                                   
                                           ########,                                 
                                     ,,################,,,,,                         
                               ,,#################################,,                 
                          ,,##########################################,,             
                       ,#########################################, ''#####,          
                    ,#############################################,,   '####,        
                  ,##################################################,,,,####,       
                ,###########''''           ''''###############################       
              ,#####''   ,,,,##########,,,,          '''####'''          '####       
            ,##' ,,,,###########################,,,                        '##       
           ' ,,###''''                  '''############,,,                           
         ,,##''                                '''############,,,,        ,,,,,,###''
      ,#''                                            '''#######################'''  
     '                                                          ''''####''''         
             ,#######,   #######,   ,#######,      ##                                
            ,#'     '#,  ##    ##  ,#'     '#,    #''#        ######   ,####,        
            ##       ##  ##   ,#'  ##            #'  '#       #        #'  '#        
            ##       ##  #######   ##           ,######,      #####,   #    #        
            '#,     ,#'  ##    ##  '#,     ,#' ,#      #,         ##   #,  ,#        
             '#######'   ##     ##  '#######'  #'      '#     #####' # '####'        



                  #######################################################
                  #                        -***-                        #
                  #          Department of theory and spectroscopy      #
                  #    Directorship and core code : Frank Neese         #
                  #        Max Planck Institute fuer Kohlenforschung    #
                  #                Kaiser Wilhelm Platz 1               #
                  #                 D-45470 Muelheim/Ruhr               #
                  #                      Germany                        #
                  #                                                     #
                  #                  All rights reserved                #
                  #                        -***-                        #
                  #######################################################


                         Program Version 5.0.4 -  RELEASE  -


 With contributions from (in alphabetic order):
   Daniel Aravena         : Magnetic Suceptibility
   Michael Atanasov       : Ab Initio Ligand Field Theory (pilot matlab implementation)
   Alexander A. Auer      : GIAO ZORA, VPT2 properties, NMR spectrum
   Ute Becker             : Parallelization
   Giovanni Bistoni       : ED, misc. LED, open-shell LED, HFLD
   Martin Brehm           : Molecular dynamics
   Dmytro Bykov           : SCF Hessian
   Vijay G. Chilkuri      : MRCI spin determinant printing, contributions to CSF-ICE
   Dipayan Datta          : RHF DLPNO-CCSD density
   Achintya Kumar Dutta   : EOM-CC, STEOM-CC
   Dmitry Ganyushin       : Spin-Orbit,Spin-Spin,Magnetic field MRCI
   Miquel Garcia          : C-PCM and meta-GGA Hessian, CC/C-PCM, Gaussian charge scheme
   Yang Guo               : DLPNO-NEVPT2, F12-NEVPT2, CIM, IAO-localization
   Andreas Hansen         : Spin unrestricted coupled pair/coupled cluster methods
   Benjamin Helmich-Paris : MC-RPA, TRAH-SCF, COSX integrals
   Lee Huntington         : MR-EOM, pCC
   Robert Izsak           : Overlap fitted RIJCOSX, COSX-SCS-MP3, EOM
   Marcus Kettner         : VPT2
   Christian Kollmar      : KDIIS, OOCD, Brueckner-CCSD(T), CCSD density, CASPT2, CASPT2-K
   Simone Kossmann        : Meta GGA functionals, TD-DFT gradient, OOMP2, MP2 Hessian
   Martin Krupicka        : Initial AUTO-CI
   Lucas Lang             : DCDCAS
   Marvin Lechner         : AUTO-CI (C++ implementation), FIC-MRCC
   Dagmar Lenk            : GEPOL surface, SMD
   Dimitrios Liakos       : Extrapolation schemes; Compound Job, initial MDCI parallelization
   Dimitrios Manganas     : Further ROCIS development; embedding schemes
   Dimitrios Pantazis     : SARC Basis sets
   Anastasios Papadopoulos: AUTO-CI, single reference methods and gradients
   Taras Petrenko         : DFT Hessian,TD-DFT gradient, ASA, ECA, R-Raman, ABS, FL, XAS/XES, NRVS
   Peter Pinski           : DLPNO-MP2, DLPNO-MP2 Gradient
   Christoph Reimann      : Effective Core Potentials
   Marius Retegan         : Local ZFS, SOC
   Christoph Riplinger    : Optimizer, TS searches, QM/MM, DLPNO-CCSD(T), (RO)-DLPNO pert. Triples
   Tobias Risthaus        : Range-separated hybrids, TD-DFT gradient, RPA, STAB
   Michael Roemelt        : Original ROCIS implementation
   Masaaki Saitow         : Open-shell DLPNO-CCSD energy and density
   Barbara Sandhoefer     : DKH picture change effects
   Avijit Sen             : IP-ROCIS
   Kantharuban Sivalingam : CASSCF convergence, NEVPT2, FIC-MRCI
   Bernardo de Souza      : ESD, SOC TD-DFT
   Georgi Stoychev        : AutoAux, RI-MP2 NMR, DLPNO-MP2 response
   Willem Van den Heuvel  : Paramagnetic NMR
   Boris Wezisla          : Elementary symmetry handling
   Frank Wennmohs         : Technical directorship


 We gratefully acknowledge several colleagues who have allowed us to
 interface, adapt or use parts of their codes:
   Stefan Grimme, W. Hujo, H. Kruse, P. Pracht,  : VdW corrections, initial TS optimization,
                  C. Bannwarth, S. Ehlert          DFT functionals, gCP, sTDA/sTD-DF
   Ed Valeev, F. Pavosevic, A. Kumar             : LibInt (2-el integral package), F12 methods
   Garnet Chan, S. Sharma, J. Yang, R. Olivares  : DMRG
   Ulf Ekstrom                                   : XCFun DFT Library
   Mihaly Kallay                                 : mrcc  (arbitrary order and MRCC methods)
   Jiri Pittner, Ondrej Demel                    : Mk-CCSD
   Frank Weinhold                                : gennbo (NPA and NBO analysis)
   Christopher J. Cramer and Donald G. Truhlar   : smd solvation model
   Lars Goerigk                                  : TD-DFT with DH, B97 family of functionals
   V. Asgeirsson, H. Jonsson                     : NEB implementation
   FAccTs GmbH                                   : IRC, NEB, NEB-TS, DLPNO-Multilevel, CI-OPT
                                                   MM, QMMM, 2- and 3-layer-ONIOM, Crystal-QMMM,
                                                   LR-CPCM, SF, NACMEs, symmetry and pop. for TD-DFT,
                                                   nearIR, NL-DFT gradient (VV10), updates on ESD,
                                                   ML-optimized integration grids
   S Lehtola, MJT Oliveira, MAL Marques          : LibXC Library
   Liviu Ungur et al                             : ANISO software


 Your calculation uses the libint2 library for the computation of 2-el integrals
 For citations please refer to: http://libint.valeyev.net

 Your ORCA version has been built with support for libXC version: 5.1.0
 For citations please refer to: https://tddft.org/programs/libxc/

 This ORCA versions uses:
   CBLAS   interface :  Fast vector & matrix operations
   LAPACKE interface :  Fast linear algebra routines
   SCALAPACK package :  Parallel linear algebra routines
   Shared memory     :  Shared parallel matrices
   BLAS/LAPACK       :  OpenBLAS 0.3.15  USE64BITINT DYNAMIC_ARCH NO_AFFINITY Zen SINGLE_THREADED
        Core in use  :  Zen
   Copyright (c) 2011-2014, The OpenBLAS Project


================================================================================

----- Orbital basis set information -----
Your calculation utilizes the basis: def2-TZVP(-f)
   F. Weigend and R. Ahlrichs, Phys. Chem. Chem. Phys. 7, 3297 (2005).

----- AuxJ basis set information -----
Your calculation utilizes the auxiliary basis: def2/J
   F. Weigend, Phys. Chem. Chem. Phys. 8, 1057 (2006).

----- AuxC basis set information -----
Your calculation utilizes the auxiliary basis: def2-TZVP/C
  H-La, Hf-Rn : A. Hellweg, C. Hattig, S. Hofener and W. Klopper, Theor. Chem. Acc. 117, 587 (2007).
        Ce-Lu : J. Chmela and M. E. Harding, Mol. Phys. (2018).

================================================================================
                                        WARNINGS
                       Please study these warnings very carefully!
================================================================================

INFO   : Checking CIS options ...

WARNING: (CIS/TDDFT): Analytic excited state gradients requested
  ===> : turning on equilibrium dielectric conditions.

WARNING: Geometry Optimization
  ===> : Switching off AutoStart
         For restart on a previous wavefunction, please use MOREAD

WARNING: CIS/ROCIS methods need fully converged wavefunctions
  ===> : Setting SCFConvForced true
         You can overwrite this default with %scf ConvForced false 


INFO   : the flag for use of the SHARK integral package has been found!

================================================================================
                                       INPUT FILE
================================================================================
NAME = NMU-1_ES.inp
|  1> ! B3LYP/G OPT Def2-TZVP(-f) Def2-TZVP/C Def2/J RIJCOSX TightSCF CPCM(Water) AllPop SOSCF
|  2> %maxcore 3000
|  3> %tddft
|  4>     NRoots 5
|  5>     IRoot 1
|  6> end
|  7> 
|  8> * xyz 0 1
|  9>    C       -6.51615       -1.52096        0.00263
| 10>    C       -6.58631       -2.65827       -0.99537
| 11>    C       -5.55071       -3.70833       -0.63276
| 12>    H       -6.39859       -2.27049       -1.99197
| 13>    H       -7.58141       -3.08697       -0.99087
| 14>    C       -4.19702       -3.08183       -0.37209
| 15>    H       -5.46084       -4.44946       -1.41773
| 16>    H       -5.87897       -4.23552        0.25907
| 17>    C       -4.08062       -1.70966       -0.03056
| 18>    N       -5.20021       -0.90994        0.00184
| 19>    H       -6.77323       -1.88595        0.99859
| 20>    H       -7.23227       -0.75149       -0.25199
| 21>    C       -5.12158        0.37425        0.67033
| 22>    C       -3.86776        1.11468        0.25582
| 23>    H       -5.14012        0.24768        1.75436
| 24>    H       -6.00080        0.94127        0.39705
| 25>    C       -2.63817        0.29586        0.61398
| 26>    H       -3.83133        2.08061        0.74518
| 27>    H       -3.90087        1.29019       -0.81483
| 28>    C       -2.81813       -1.15984        0.24048
| 29>    H       -2.44635        0.37179        1.68083
| 30>    H       -1.76474        0.69606        0.11629
| 31>    C       -3.06843       -3.84915       -0.44485
| 32>    C       -1.72213       -1.99520        0.16433
| 33>    C       -1.80452       -3.32935       -0.17687
| 34>    O       -0.51048       -1.45640        0.44511
| 35>    C        0.64726       -2.12350        0.40900
| 36>    C       -0.59082       -4.08868       -0.21916
| 37>    C        0.60107       -3.54223        0.05798
| 38>    O        1.63662       -1.50676        0.66086
| 39>    C        1.86902       -4.31225       -0.00028
| 40>    C        2.78667       -4.32358        1.04080
| 41>    C        2.17001       -5.08489       -1.11059
| 42>    N        3.25473       -5.82888       -1.22219
| 43>    C        4.11171       -5.83259       -0.22126
| 44>    C        3.92357       -5.09416        0.93153
| 45>    H        1.49897       -5.09375       -1.95052
| 46>    H        4.64849       -5.12892        1.72141
| 47>    H        4.98743       -6.44544       -0.33625
| 48>    H        2.60993       -3.74476        1.92655
| 49>    H       -3.15456       -4.88782       -0.70981
| 50>    H       -0.65704       -5.13072       -0.47361
| 51> *
| 52> 
| 53> 
| 54>                          ****END OF INPUT****
================================================================================

                       *****************************
                       * Geometry Optimization Run *
                       *****************************

Geometry optimization settings:
Update method            Update   .... BFGS
Choice of coordinates    CoordSys .... Z-matrix Internals
Initial Hessian          InHess   .... Almoef's Model

Convergence Tolerances:
Energy Change            TolE     ....  5.0000e-06 Eh
Max. Gradient            TolMAXG  ....  3.0000e-04 Eh/bohr
RMS Gradient             TolRMSG  ....  1.0000e-04 Eh/bohr
Max. Displacement        TolMAXD  ....  4.0000e-03 bohr
RMS Displacement         TolRMSD  ....  2.0000e-03 bohr
Strict Convergence                ....  False
------------------------------------------------------------------------------
                        ORCA OPTIMIZATION COORDINATE SETUP
------------------------------------------------------------------------------

The optimization will be done in new redundant internal coordinates
Making redundant internal coordinates   ...  (new redundants) done
Evaluating the initial hessian          ...  (Almloef) done
Evaluating the coordinates              ...  done
Calculating the B-matrix                .... done
Calculating the G-matrix                .... done
Diagonalizing the G-matrix              .... done
Small eigenvalue found = 5.526e-03
Small eigenvalue found = 1.257e-02
Small eigenvalue found = 2.738e-02
The first mode is                       ....  137
The number of degrees of freedom        ....  120

    -----------------------------------------------------------------
                    Redundant Internal Coordinates


    -----------------------------------------------------------------
         Definition                    Initial Value    Approx d2E/dq
    -----------------------------------------------------------------
      1. B(C   1,C   0)                  1.5147         0.395133   
      2. B(C   2,C   1)                  1.5187         0.389348   
      3. B(H   3,C   1)                  1.0857         0.365785   
      4. B(H   4,C   1)                  1.0835         0.368767   
      5. B(C   5,C   2)                  1.5142         0.395839   
      6. B(H   6,C   2)                  1.0833         0.369080   
      7. B(H   7,C   2)                  1.0868         0.364413   
      8. B(C   8,C   5)                  1.4188         0.562034   
      9. B(N   9,C   8)                  1.3763         0.588574   
     10. B(N   9,C   0)                  1.4509         0.447456   
     11. B(H  10,C   0)                  1.0914         0.358198   
     12. B(H  11,C   0)                  1.0815         0.371458   
     13. B(C  12,N   9)                  1.4499         0.449067   
     14. B(C  13,C  12)                  1.5140         0.396228   
     15. B(H  14,C  12)                  1.0916         0.358053   
     16. B(H  15,C  12)                  1.0813         0.371787   
     17. B(C  16,C  13)                  1.5201         0.387443   
     18. B(H  17,C  13)                  1.0834         0.368897   
     19. B(H  18,C  13)                  1.0854         0.366176   
     20. B(C  19,C  16)                  1.5136         0.396790   
     21. B(C  19,C   8)                  1.4034         0.594696   
     22. B(H  20,C  16)                  1.0866         0.364608   
     23. B(H  21,C  16)                  1.0820         0.370833   
     24. B(C  22,C   5)                  1.3667         0.680704   
     25. B(C  23,C  19)                  1.3802         0.647795   
     26. B(C  24,C  23)                  1.3796         0.649245   
     27. B(C  24,C  22)                  1.3926         0.618744   
     28. B(O  25,C  23)                  1.3554         0.635333   
     29. B(C  26,O  25)                  1.3367         0.680705   
     30. B(C  27,C  24)                  1.4323         0.534905   
     31. B(C  28,C  26)                  1.4622         0.479166   
     32. B(C  28,C  27)                  1.3402         0.750348   
     33. B(O  29,C  26)                  1.1927         1.155014   
     34. B(C  30,C  28)                  1.4846         0.441386   
     35. B(C  31,C  30)                  1.3878         0.629809   
     36. B(C  32,C  30)                  1.3858         0.634583   
     37. B(N  33,C  32)                  1.3201         0.723501   
     38. B(C  34,N  33)                  1.3177         0.729881   
     39. B(C  35,C  34)                  1.3819         0.643708   
     40. B(C  35,C  31)                  1.3778         0.653486   
     41. B(H  36,C  32)                  1.0751         0.380350   
     42. B(H  37,C  35)                  1.0727         0.383766   
     43. B(H  38,C  34)                  1.0750         0.380456   
     44. B(H  39,C  31)                  1.0728         0.383638   
     45. B(H  40,C  22)                  1.0754         0.379959   
     46. B(H  41,C  27)                  1.0747         0.380921   
     47. A(C   1,C   0,H  10)          109.8299         0.327041   
     48. A(C   1,C   0,N   9)          110.9687         0.376060   
     49. A(N   9,C   0,H  11)          107.5055         0.333827   
     50. A(H  10,C   0,H  11)          107.2647         0.292020   
     51. A(C   1,C   0,H  11)          110.3897         0.329007   
     52. A(N   9,C   0,H  10)          110.7913         0.331821   
     53. A(C   2,C   1,H   3)          110.3773         0.327375   
     54. A(C   0,C   1,H   3)          109.1837         0.328172   
     55. A(C   2,C   1,H   4)          110.5905         0.327814   
     56. A(H   3,C   1,H   4)          107.6926         0.292650   
     57. A(C   0,C   1,H   4)          109.6864         0.328612   
     58. A(C   0,C   1,C   2)          109.2831         0.369471   
     59. A(C   5,C   2,H   7)          109.2363         0.328066   
     60. A(C   1,C   2,C   5)          111.3844         0.369584   
     61. A(C   5,C   2,H   6)          109.4894         0.328755   
     62. A(C   1,C   2,H   7)          108.9878         0.327173   
     63. A(C   1,C   2,H   6)          110.8903         0.327860   
     64. A(H   6,C   2,H   7)          106.7275         0.292516   
     65. A(C   2,C   5,C   8)          120.9918         0.393892   
     66. A(C   2,C   5,C  22)          119.7871         0.407403   
     67. A(C   8,C   5,C  22)          119.2131         0.433695   
     68. A(C   5,C   8,N   9)          120.0599         0.419790   
     69. A(N   9,C   8,C  19)          119.9740         0.424046   
     70. A(C   5,C   8,C  19)          119.9454         0.423316   
     71. A(C   0,N   9,C   8)          119.5472         0.400569   
     72. A(C   8,N   9,C  12)          118.7774         0.400822   
     73. A(C   0,N   9,C  12)          114.9573         0.382063   
     74. A(H  14,C  12,H  15)          107.3366         0.292042   
     75. A(C  13,C  12,H  15)          110.3489         0.329206   
     76. A(N   9,C  12,H  15)          107.6879         0.334076   
     77. A(C  13,C  12,H  14)          110.0401         0.327168   
     78. A(N   9,C  12,H  14)          110.7481         0.331996   
     79. A(N   9,C  12,C  13)          110.6004         0.376473   
     80. A(C  12,C  13,H  17)          109.8894         0.328782   
     81. A(C  12,C  13,C  16)          109.9956         0.369335   
     82. A(H  17,C  13,H  18)          107.6011         0.292715   
     83. A(C  16,C  13,H  18)          110.1319         0.327169   
     84. A(C  12,C  13,H  18)          108.8974         0.328380   
     85. A(C  16,C  13,H  17)          110.2812         0.327568   
     86. A(H  20,C  16,H  21)          106.4547         0.292759   
     87. A(C  19,C  16,H  21)          109.7670         0.329143   
     88. A(C  13,C  16,H  21)          110.2035         0.327851   
     89. A(C  19,C  16,H  20)          109.2973         0.328225   
     90. A(C  13,C  16,C  19)          111.3307         0.369425   
     91. A(C  13,C  16,H  20)          109.6631         0.326937   
     92. A(C  16,C  19,C  23)          120.0869         0.404023   
     93. A(C   8,C  19,C  23)          117.8125         0.434237   
     94. A(C   8,C  19,C  16)          122.0997         0.397983   
     95. A(C   5,C  22,C  24)          121.9820         0.441277   
     96. A(C  24,C  22,H  40)          118.7246         0.356012   
     97. A(C   5,C  22,H  40)          119.2919         0.361843   
     98. A(C  24,C  23,O  25)          119.2778         0.436733   
     99. A(C  19,C  23,O  25)          117.2477         0.436557   
    100. A(C  19,C  23,C  24)          123.4744         0.441163   
    101. A(C  23,C  24,C  27)          117.9954         0.426226   
    102. A(C  22,C  24,C  27)          124.4366         0.422573   
    103. A(C  22,C  24,C  23)          117.5650         0.437525   
    104. A(C  23,O  25,C  26)          124.7689         0.437585   
    105. A(C  28,C  26,O  29)          125.3510         0.460656   
    106. A(O  25,C  26,O  29)          117.0444         0.488083   
    107. A(O  25,C  26,C  28)          117.6035         0.418737   
    108. A(C  24,C  27,C  28)          122.0975         0.437456   
    109. A(C  28,C  27,H  41)          119.9420         0.368085   
    110. A(C  24,C  27,H  41)          117.9577         0.347504   
    111. A(C  27,C  28,C  30)          122.6821         0.422624   
    112. A(C  26,C  28,C  30)          119.0572         0.390420   
    113. A(C  26,C  28,C  27)          118.2523         0.428884   
    114. A(C  31,C  30,C  32)          116.9281         0.437121   
    115. A(C  28,C  30,C  32)          120.4067         0.410208   
    116. A(C  28,C  30,C  31)          122.6510         0.409659   
    117. A(C  35,C  31,H  39)          120.2121         0.359925   
    118. A(C  30,C  31,H  39)          120.4003         0.357671   
    119. A(C  30,C  31,C  35)          119.3857         0.439442   
    120. A(N  33,C  32,H  36)          116.2436         0.363422   
    121. A(C  30,C  32,H  36)          119.6687         0.357607   
    122. A(C  30,C  32,N  33)          124.0868         0.445266   
    123. A(C  32,N  33,C  34)          118.1502         0.453703   
    124. A(C  35,C  34,H  38)          120.3158         0.358493   
    125. A(N  33,C  34,H  38)          116.7529         0.363985   
    126. A(N  33,C  34,C  35)          122.9312         0.447130   
    127. A(C  34,C  35,H  37)          120.3289         0.359022   
    128. A(C  31,C  35,H  37)          121.1566         0.359945   
    129. A(C  31,C  35,C  34)          118.5139         0.441177   
    130. D(H   3,C   1,C   0,H  11)     57.9185         0.012399   
    131. D(C   2,C   1,C   0,N   9)     59.6512         0.012399   
    132. D(H   4,C   1,C   0,H  11)    -59.8715         0.012399   
    133. D(H   4,C   1,C   0,H  10)     58.2030         0.012399   
    134. D(H   3,C   1,C   0,H  10)    175.9930         0.012399   
    135. D(H   4,C   1,C   0,N   9)   -178.9566         0.012399   
    136. D(H   3,C   1,C   0,N   9)    -61.1666         0.012399   
    137. D(C   2,C   1,C   0,H  10)    -63.1893         0.012399   
    138. D(C   2,C   1,C   0,H  11)    178.7363         0.012399   
    139. D(H   6,C   2,C   1,H   3)    -50.3128         0.012054   
    140. D(C   5,C   2,C   1,H   4)   -169.0375         0.012054   
    141. D(C   5,C   2,C   1,C   0)    -48.1945         0.012054   
    142. D(H   7,C   2,C   1,C   0)     72.3977         0.012054   
    143. D(H   6,C   2,C   1,H   4)     68.7565         0.012054   
    144. D(H   6,C   2,C   1,C   0)   -170.4004         0.012054   
    145. D(C   5,C   2,C   1,H   3)     71.8931         0.012054   
    146. D(H   7,C   2,C   1,H   3)   -167.5147         0.012054   
    147. D(H   7,C   2,C   1,H   4)    -48.4453         0.012054   
    148. D(C  22,C   5,C   2,H   6)    -36.5865         0.011640   
    149. D(C   8,C   5,C   2,H   7)    -99.0097         0.011640   
    150. D(C   8,C   5,C   2,H   6)    144.4477         0.011640   
    151. D(C  22,C   5,C   2,H   7)     79.9561         0.011640   
    152. D(C   8,C   5,C   2,C   1)     21.4365         0.011640   
    153. D(C  22,C   5,C   2,C   1)   -159.5977         0.011640   
    154. D(C  19,C   8,C   5,C   2)    178.3437         0.021644   
    155. D(N   9,C   8,C   5,C   2)     -3.3121         0.021644   
    156. D(C  19,C   8,C   5,C  22)     -0.6280         0.021644   
    157. D(N   9,C   8,C   5,C  22)    177.7163         0.021644   
    158. D(C   8,N   9,C   0,C   1)    -43.3612         0.017078   
    159. D(C   8,N   9,C   0,H  10)     78.9219         0.017078   
    160. D(C   8,N   9,C   0,H  11)   -164.1654         0.017078   
    161. D(C  12,N   9,C   8,C  19)    -17.1946         0.027839   
    162. D(C  12,N   9,C   8,C   5)    164.4616         0.027839   
    163. D(C   0,N   9,C   8,C  19)   -167.0438         0.027839   
    164. D(C   0,N   9,C   8,C   5)     14.6124         0.027839   
    165. D(C  12,N   9,C   0,H  11)     44.8856         0.017078   
    166. D(C  12,N   9,C   0,H  10)    -72.0271         0.017078   
    167. D(C  12,N   9,C   0,C   1)    165.6898         0.017078   
    168. D(H  15,C  12,N   9,C   8)    167.0929         0.017202   
    169. D(H  15,C  12,N   9,C   0)    -41.7206         0.017202   
    170. D(H  14,C  12,N   9,C   8)    -75.8246         0.017202   
    171. D(H  14,C  12,N   9,C   0)     75.3619         0.017202   
    172. D(C  13,C  12,N   9,C   8)     46.4427         0.017202   
    173. D(C  13,C  12,N   9,C   0)   -162.3708         0.017202   
    174. D(H  18,C  13,C  12,H  15)    -57.8907         0.012465   
    175. D(H  18,C  13,C  12,H  14)   -176.1580         0.012465   
    176. D(H  18,C  13,C  12,N   9)     61.1611         0.012465   
    177. D(H  17,C  13,C  12,H  15)     59.7378         0.012465   
    178. D(H  17,C  13,C  12,H  14)    -58.5295         0.012465   
    179. D(H  17,C  13,C  12,N   9)    178.7896         0.012465   
    180. D(C  16,C  13,C  12,H  15)   -178.6674         0.012465   
    181. D(C  16,C  13,C  12,H  14)     63.0653         0.012465   
    182. D(C  16,C  13,C  12,N   9)    -59.6156         0.012465   
    183. D(H  21,C  16,C  13,H  18)     46.3910         0.011941   
    184. D(H  21,C  16,C  13,H  17)    -72.2171         0.011941   
    185. D(H  21,C  16,C  13,C  12)    166.4221         0.011941   
    186. D(H  20,C  16,C  13,H  18)    163.2639         0.011941   
    187. D(H  20,C  16,C  13,H  17)     44.6558         0.011941   
    188. D(H  20,C  16,C  13,C  12)    -76.7050         0.011941   
    189. D(C  19,C  16,C  13,H  18)    -75.6532         0.011941   
    190. D(C  19,C  16,C  13,H  17)    165.7387         0.011941   
    191. D(C  19,C  16,C  13,C  12)     44.3779         0.011941   
    192. D(C  16,C  19,C   8,C   5)   -179.7863         0.024358   
    193. D(C  23,C  19,C  16,H  21)     41.2633         0.011693   
    194. D(C  23,C  19,C  16,C  13)    163.5598         0.011693   
    195. D(C   8,C  19,C  16,H  21)   -139.0937         0.011693   
    196. D(C   8,C  19,C  16,H  20)    104.4995         0.011693   
    197. D(C   8,C  19,C  16,C  13)    -16.7971         0.011693   
    198. D(C  23,C  19,C   8,N   9)   -178.4812         0.024358   
    199. D(C  23,C  19,C  16,H  20)    -75.1436         0.011693   
    200. D(C  23,C  19,C   8,C   5)     -0.1355         0.024358   
    201. D(C  16,C  19,C   8,N   9)      1.8680         0.024358   
    202. D(H  40,C  22,C   5,C   8)   -179.6078         0.032486   
    203. D(H  40,C  22,C   5,C   2)      1.4080         0.032486   
    204. D(C  24,C  22,C   5,C   8)      0.8351         0.032486   
    205. D(C  24,C  22,C   5,C   2)   -178.1491         0.032486   
    206. D(O  25,C  23,C  19,C  16)      0.4868         0.029204   
    207. D(O  25,C  23,C  19,C   8)   -179.1714         0.029204   
    208. D(C  24,C  23,C  19,C  16)   -179.5961         0.029204   
    209. D(C  24,C  23,C  19,C   8)      0.7457         0.029204   
    210. D(C  27,C  24,C  23,O  25)     -0.0462         0.029344   
    211. D(C  27,C  24,C  23,C  19)   -179.9617         0.029344   
    212. D(C  22,C  24,C  23,O  25)    179.3547         0.029344   
    213. D(C  22,C  24,C  23,C  19)     -0.5608         0.029344   
    214. D(C  27,C  24,C  22,H  40)     -0.4606         0.026485   
    215. D(C  27,C  24,C  22,C   5)    179.0989         0.026485   
    216. D(C  23,C  24,C  22,H  40)   -179.8192         0.026485   
    217. D(C  23,C  24,C  22,C   5)     -0.2598         0.026485   
    218. D(C  26,O  25,C  23,C  24)      0.5525         0.029723   
    219. D(C  26,O  25,C  23,C  19)   -179.5268         0.029723   
    220. D(O  29,C  26,O  25,C  23)    178.8095         0.034519   
    221. D(C  28,C  26,O  25,C  23)     -0.8415         0.034519   
    222. D(H  41,C  27,C  24,C  23)    179.2861         0.019540   
    223. D(H  41,C  27,C  24,C  22)     -0.0700         0.019540   
    224. D(C  28,C  27,C  24,C  23)     -0.1055         0.019540   
    225. D(C  28,C  27,C  24,C  22)   -179.4616         0.019540   
    226. D(C  30,C  28,C  27,H  41)      1.4964         0.040156   
    227. D(C  30,C  28,C  27,C  24)   -179.1237         0.040156   
    228. D(C  26,C  28,C  27,H  41)   -179.5681         0.040156   
    229. D(C  26,C  28,C  27,C  24)     -0.1883         0.040156   
    230. D(C  30,C  28,C  26,O  29)     -0.0070         0.015632   
    231. D(C  30,C  28,C  26,O  25)    179.6118         0.015632   
    232. D(C  27,C  28,C  26,O  29)   -178.9820         0.015632   
    233. D(C  27,C  28,C  26,O  25)      0.6368         0.015632   
    234. D(C  32,C  30,C  28,C  27)     49.3208         0.013291   
    235. D(C  32,C  30,C  28,C  26)   -129.6064         0.013291   
    236. D(C  31,C  30,C  28,C  27)   -129.2661         0.013291   
    237. D(C  31,C  30,C  28,C  26)     51.8067         0.013291   
    238. D(H  39,C  31,C  30,C  32)    179.9370         0.027501   
    239. D(H  39,C  31,C  30,C  28)     -1.4299         0.027501   
    240. D(C  35,C  31,C  30,C  32)     -0.5758         0.027501   
    241. D(C  35,C  31,C  30,C  28)    178.0573         0.027501   
    242. D(H  36,C  32,C  30,C  31)   -178.8324         0.027947   
    243. D(H  36,C  32,C  30,C  28)      2.5021         0.027947   
    244. D(N  33,C  32,C  30,C  31)      0.8023         0.027947   
    245. D(N  33,C  32,C  30,C  28)   -177.8633         0.027947   
    246. D(C  34,N  33,C  32,H  36)    179.1597         0.039457   
    247. D(C  34,N  33,C  32,C  30)     -0.4864         0.039457   
    248. D(H  38,C  34,N  33,C  32)   -179.9476         0.040228   
    249. D(C  35,C  34,N  33,C  32)     -0.0584         0.040228   
    250. D(C  31,C  35,C  34,H  38)   -179.8714         0.028812   
    251. D(C  31,C  35,C  34,N  33)      0.2432         0.028812   
    252. D(H  37,C  35,C  31,H  39)     -0.1169         0.029756   
    253. D(H  37,C  35,C  31,C  30)   -179.6051         0.029756   
    254. D(C  34,C  35,C  31,H  39)    179.5853         0.029756   
    255. D(H  37,C  35,C  34,N  33)    179.9480         0.028812   
    256. D(C  34,C  35,C  31,C  30)      0.0971         0.029756   
    257. D(H  37,C  35,C  34,H  38)     -0.1667         0.028812   
    -----------------------------------------------------------------

Number of atoms                         .... 42
Number of degrees of freedom            .... 257

         *************************************************************
         *                GEOMETRY OPTIMIZATION CYCLE   1            *
         *************************************************************
---------------------------------
CARTESIAN COORDINATES (ANGSTROEM)
---------------------------------
  C     -6.516150   -1.520960    0.002630
  C     -6.586310   -2.658270   -0.995370
  C     -5.550710   -3.708330   -0.632760
  H     -6.398590   -2.270490   -1.991970
  H     -7.581410   -3.086970   -0.990870
  C     -4.197020   -3.081830   -0.372090
  H     -5.460840   -4.449460   -1.417730
  H     -5.878970   -4.235520    0.259070
  C     -4.080620   -1.709660   -0.030560
  N     -5.200210   -0.909940    0.001840
  H     -6.773230   -1.885950    0.998590
  H     -7.232270   -0.751490   -0.251990
  C     -5.121580    0.374250    0.670330
  C     -3.867760    1.114680    0.255820
  H     -5.140120    0.247680    1.754360
  H     -6.000800    0.941270    0.397050
  C     -2.638170    0.295860    0.613980
  H     -3.831330    2.080610    0.745180
  H     -3.900870    1.290190   -0.814830
  C     -2.818130   -1.159840    0.240480
  H     -2.446350    0.371790    1.680830
  H     -1.764740    0.696060    0.116290
  C     -3.068430   -3.849150   -0.444850
  C     -1.722130   -1.995200    0.164330
  C     -1.804520   -3.329350   -0.176870
  O     -0.510480   -1.456400    0.445110
  C      0.647260   -2.123500    0.409000
  C     -0.590820   -4.088680   -0.219160
  C      0.601070   -3.542230    0.057980
  O      1.636620   -1.506760    0.660860
  C      1.869020   -4.312250   -0.000280
  C      2.786670   -4.323580    1.040800
  C      2.170010   -5.084890   -1.110590
  N      3.254730   -5.828880   -1.222190
  C      4.111710   -5.832590   -0.221260
  C      3.923570   -5.094160    0.931530
  H      1.498970   -5.093750   -1.950520
  H      4.648490   -5.128920    1.721410
  H      4.987430   -6.445440   -0.336250
  H      2.609930   -3.744760    1.926550
  H     -3.154560   -4.887820   -0.709810
  H     -0.657040   -5.130720   -0.473610

----------------------------
CARTESIAN COORDINATES (A.U.)
----------------------------
  NO LB      ZA    FRAG     MASS         X           Y           Z
   0 C     6.0000    0    12.011  -12.313739   -2.874198    0.004970
   1 C     6.0000    0    12.011  -12.446322   -5.023402   -1.880977
   2 C     6.0000    0    12.011  -10.489322   -7.007728   -1.195743
   3 H     1.0000    0     1.008  -12.091583   -4.290604   -3.764278
   4 H     1.0000    0     1.008  -14.326789   -5.833528   -1.872473
   5 C     6.0000    0    12.011   -7.931218   -5.823815   -0.703148
   6 H     1.0000    0     1.008  -10.319492   -8.408261   -2.679121
   7 H     1.0000    0     1.008  -11.109643   -8.003973    0.489571
   8 C     6.0000    0    12.011   -7.711254   -3.230789   -0.057750
   9 N     7.0000    0    14.007   -9.826973   -1.719537    0.003477
  10 H     1.0000    0     1.008  -12.799550   -3.563929    1.887062
  11 H     1.0000    0     1.008  -13.667010   -1.420110   -0.476192
  12 C     6.0000    0    12.011   -9.678384    0.707230    1.266740
  13 C     6.0000    0    12.011   -7.309007    2.106440    0.483430
  14 H     1.0000    0     1.008   -9.713419    0.468047    3.315260
  15 H     1.0000    0     1.008  -11.339869    1.778743    0.750316
  16 C     6.0000    0    12.011   -4.985419    0.559094    1.160254
  17 H     1.0000    0     1.008   -7.240164    3.931783    1.408186
  18 H     1.0000    0     1.008   -7.371576    2.438106   -1.539806
  19 C     6.0000    0    12.011   -5.325494   -2.191780    0.454441
  20 H     1.0000    0     1.008   -4.622932    0.702581    3.176308
  21 H     1.0000    0     1.008   -3.334875    1.315363    0.219756
  22 C     6.0000    0    12.011   -5.798492   -7.273839   -0.840645
  23 C     6.0000    0    12.011   -3.254354   -3.770382    0.310539
  24 C     6.0000    0    12.011   -3.410049   -6.291560   -0.334236
  25 O     8.0000    0    15.999   -0.964667   -2.752197    0.841136
  26 C     6.0000    0    12.011    1.223144   -4.012833    0.772898
  27 C     6.0000    0    12.011   -1.116488   -7.726485   -0.414152
  28 C     6.0000    0    12.011    1.135858   -6.693845    0.109566
  29 O     8.0000    0    15.999    3.092764   -2.847364    1.248844
  30 C     6.0000    0    12.011    3.531936   -8.148972   -0.000529
  31 C     6.0000    0    12.011    5.266043   -8.170382    1.966827
  32 C     6.0000    0    12.011    4.100725   -9.609050   -2.098711
  33 N     7.0000    0    14.007    6.150548  -11.014987   -2.309604
  34 C     6.0000    0    12.011    7.770006  -11.021998   -0.418121
  35 C     6.0000    0    12.011    7.414473   -9.626567    1.760337
  36 H     1.0000    0     1.008    2.832643   -9.625792   -3.685949
  37 H     1.0000    0     1.008    8.784373   -9.692254    3.252993
  38 H     1.0000    0     1.008    9.424877  -12.180116   -0.635420
  39 H     1.0000    0     1.008    4.932053   -7.076571    3.640652
  40 H     1.0000    0     1.008   -5.961254   -9.236641   -1.341347
  41 H     1.0000    0     1.008   -1.241626   -9.695656   -0.894993

--------------------------------
INTERNAL COORDINATES (ANGSTROEM)
--------------------------------
 C      0   0   0     0.000000000000     0.00000000     0.00000000
 C      1   0   0     1.514727850705     0.00000000     0.00000000
 C      2   1   0     1.518742695686   109.28308281     0.00000000
 H      2   1   3     1.085736472078   109.18368622   239.18225046
 H      2   1   3     1.083525703433   109.68641364   121.39223104
 C      3   2   1     1.514241630322   111.38440953   311.80550094
 H      3   2   1     1.083295063545   110.89032434   189.59956926
 H      3   2   1     1.086758792281   108.98784952    72.39771048
 C      6   3   2     1.418817186885   120.99179719    21.43649099
 N      9   6   3     1.376257100436   120.05993715   356.68792387
 H      1   2   3     1.091441316838   109.82986280   296.81074910
 H      1   2   3     1.081546707128   110.38971684   178.73625691
 C     10   9   6     1.449898449237   118.77742455   164.46164698
 C     13  10   9     1.513974807386   110.60038632    46.44268704
 H     13  10   9     1.091551527597   110.74809216   284.17538069
 H     13  10   9     1.081305436590   107.68793605   167.09291757
 C     14  13  10     1.520077743439   109.99558783   300.38442755
 H     14  13  10     1.083430255900   109.88944085   178.78962935
 H     14  13  10     1.085445279459   108.89736893    61.16108369
 C      9   6   3     1.403440669961   119.94538449   178.34365931
 H     17  14  13     1.086613638696   109.66305516   283.29496184
 H     17  14  13     1.082005240745   110.20346520   166.42205514
 C      6   3   2     1.366670914339   119.78711012   200.40225854
 C     20   9   6     1.380159828462   117.81249520   359.86454226
 C     24  20   9     1.379551294661   123.47437342     0.74573056
 O     24  20   9     1.355447738166   117.24774339   180.82864744
 C     26  24  20     1.336670583839   124.76887814   180.47316206
 C     25  24  20     1.432284253561   117.99538124   180.03831078
 C     28  25  24     1.340155197804   122.09753788   359.89446249
 O     27  26  24     1.192742594527   117.04441181   178.80947070
 C     29  28  25     1.484594971869   122.68213268   180.87625580
 C     31  29  28     1.387824721570   122.65100842   230.73391298
 C     31  29  28     1.385769044899   120.40674895    49.32084860
 N     33  31  29     1.320073164071   124.08678987   182.13671338
 C     34  33  31     1.317683326676   118.15018302   359.51359288
 C     32  31  29     1.377779038634   119.38566955   178.05728047
 H     33  31  29     1.075107243999   119.66868905     2.50206461
 H     36  32  31     1.072673146117   121.15655358   180.39490769
 H     35  34  33     1.075031786042   116.75288326   180.05243166
 H     32  31  29     1.072764038594   120.40025758   358.57009982
 H     23   6   3     1.075387161631   119.29194177     1.40797598
 H     28  25  24     1.074698679863   117.95769685   179.28608469

---------------------------
INTERNAL COORDINATES (A.U.)
---------------------------
 C      0   0   0     0.000000000000     0.00000000     0.00000000
 C      1   0   0     2.862420805255     0.00000000     0.00000000
 C      2   1   0     2.870007762740   109.28308281     0.00000000
 H      2   1   3     2.051744585837   109.18368622   239.18225046
 H      2   1   3     2.047566838553   109.68641364   121.39223104
 C      3   2   1     2.861501981891   111.38440953   311.80550094
 H      3   2   1     2.047130992328   110.89032434   189.59956926
 H      3   2   1     2.053676491042   108.98784952    72.39771048
 C      6   3   2     2.681175917313   120.99179719    21.43649099
 N      9   6   3     2.600749009688   120.05993715   356.68792387
 H      1   2   3     2.062525180069   109.82986280   296.81074910
 H      1   2   3     2.043827077517   110.38971684   178.73625691
 C     10   9   6     2.739910991055   118.77742455   164.46164698
 C     13  10   9     2.860997759616   110.60038632    46.44268704
 H     13  10   9     2.062733448222   110.74809216   284.17538069
 H     13  10   9     2.043371142276   107.68793605   167.09291757
 C     14  13  10     2.872530637370   109.99558783   300.38442755
 H     14  13  10     2.047386468856   109.88944085   178.78962935
 H     14  13  10     2.051194311535   108.89736893    61.16108369
 C      9   6   3     2.652118511433   119.94538449   178.34365931
 H     17  14  13     2.053402190519   109.66305516   283.29496184
 H     17  14  13     2.044693580476   110.20346520   166.42205514
 C      6   3   2     2.582633743296   119.78711012   200.40225854
 C     20   9   6     2.608124096833   117.81249520   359.86454226
 C     24  20   9     2.606974134605   123.47437342     0.74573056
 O     24  20   9     2.561425013977   117.24774339   180.82864744
 C     26  24  20     2.525941334724   124.76887814   180.47316206
 C     25  24  20     2.706624985159   117.99538124   180.03831078
 C     28  25  24     2.532526300800   122.09753788   359.89446249
 O     27  26  24     2.253956851920   117.04441181   178.80947070
 C     29  28  25     2.805477916630   122.68213268   180.87625580
 C     31  29  28     2.622608645652   122.65100842   230.73391298
 C     31  29  28     2.618723979725   120.40674895    49.32084860
 N     33  31  29     2.494576756833   124.08678987   182.13671338
 C     34  33  31     2.490060618652   118.15018302   359.51359288
 C     32  31  29     2.603625056076   119.38566955   178.05728047
 H     33  31  29     2.031658255754   119.66868905     2.50206461
 H     36  32  31     2.027058477372   121.15655358   180.39490769
 H     35  34  33     2.031515660879   116.75288326   180.05243166
 H     32  31  29     2.027230239262   120.40025758   358.57009982
 H     23   6   3     2.032187223417   119.29194177     1.40797598
 H     28  25  24     2.030886181428   117.95769685   179.28608469

---------------------
BASIS SET INFORMATION
---------------------
There are 4 groups of distinct atoms

 Group   1 Type C   : 11s6p2d contracted to 5s3p2d pattern {62111/411/11}
 Group   2 Type H   : 5s1p contracted to 3s1p pattern {311/1}
 Group   3 Type N   : 11s6p2d contracted to 5s3p2d pattern {62111/411/11}
 Group   4 Type O   : 11s6p2d contracted to 5s3p2d pattern {62111/411/11}

Atom   0C    basis set group =>   1
Atom   1C    basis set group =>   1
Atom   2C    basis set group =>   1
Atom   3H    basis set group =>   2
Atom   4H    basis set group =>   2
Atom   5C    basis set group =>   1
Atom   6H    basis set group =>   2
Atom   7H    basis set group =>   2
Atom   8C    basis set group =>   1
Atom   9N    basis set group =>   3
Atom  10H    basis set group =>   2
Atom  11H    basis set group =>   2
Atom  12C    basis set group =>   1
Atom  13C    basis set group =>   1
Atom  14H    basis set group =>   2
Atom  15H    basis set group =>   2
Atom  16C    basis set group =>   1
Atom  17H    basis set group =>   2
Atom  18H    basis set group =>   2
Atom  19C    basis set group =>   1
Atom  20H    basis set group =>   2
Atom  21H    basis set group =>   2
Atom  22C    basis set group =>   1
Atom  23C    basis set group =>   1
Atom  24C    basis set group =>   1
Atom  25O    basis set group =>   4
Atom  26C    basis set group =>   1
Atom  27C    basis set group =>   1
Atom  28C    basis set group =>   1
Atom  29O    basis set group =>   4
Atom  30C    basis set group =>   1
Atom  31C    basis set group =>   1
Atom  32C    basis set group =>   1
Atom  33N    basis set group =>   3
Atom  34C    basis set group =>   1
Atom  35C    basis set group =>   1
Atom  36H    basis set group =>   2
Atom  37H    basis set group =>   2
Atom  38H    basis set group =>   2
Atom  39H    basis set group =>   2
Atom  40H    basis set group =>   2
Atom  41H    basis set group =>   2
---------------------------------
AUXILIARY/J BASIS SET INFORMATION
---------------------------------
There are 4 groups of distinct atoms

 Group   1 Type C   : 12s5p4d2f1g contracted to 6s4p3d1f1g pattern {711111/2111/211/2/1}
 Group   2 Type H   : 5s2p1d contracted to 3s1p1d pattern {311/2/1}
 Group   3 Type N   : 12s5p4d2f1g contracted to 6s4p3d1f1g pattern {711111/2111/211/2/1}
 Group   4 Type O   : 12s5p4d2f1g contracted to 6s4p3d1f1g pattern {711111/2111/211/2/1}

Atom   0C    basis set group =>   1
Atom   1C    basis set group =>   1
Atom   2C    basis set group =>   1
Atom   3H    basis set group =>   2
Atom   4H    basis set group =>   2
Atom   5C    basis set group =>   1
Atom   6H    basis set group =>   2
Atom   7H    basis set group =>   2
Atom   8C    basis set group =>   1
Atom   9N    basis set group =>   3
Atom  10H    basis set group =>   2
Atom  11H    basis set group =>   2
Atom  12C    basis set group =>   1
Atom  13C    basis set group =>   1
Atom  14H    basis set group =>   2
Atom  15H    basis set group =>   2
Atom  16C    basis set group =>   1
Atom  17H    basis set group =>   2
Atom  18H    basis set group =>   2
Atom  19C    basis set group =>   1
Atom  20H    basis set group =>   2
Atom  21H    basis set group =>   2
Atom  22C    basis set group =>   1
Atom  23C    basis set group =>   1
Atom  24C    basis set group =>   1
Atom  25O    basis set group =>   4
Atom  26C    basis set group =>   1
Atom  27C    basis set group =>   1
Atom  28C    basis set group =>   1
Atom  29O    basis set group =>   4
Atom  30C    basis set group =>   1
Atom  31C    basis set group =>   1
Atom  32C    basis set group =>   1
Atom  33N    basis set group =>   3
Atom  34C    basis set group =>   1
Atom  35C    basis set group =>   1
Atom  36H    basis set group =>   2
Atom  37H    basis set group =>   2
Atom  38H    basis set group =>   2
Atom  39H    basis set group =>   2
Atom  40H    basis set group =>   2
Atom  41H    basis set group =>   2
---------------------------------
AUXILIARY/C BASIS SET INFORMATION
---------------------------------
There are 4 groups of distinct atoms

 Group   1 Type C   : 8s6p5d3f1g contracted to 8s6p4d3f1g pattern {11111111/111111/2111/111/1}
 Group   2 Type H   : 4s3p2d contracted to 4s2p1d pattern {1111/21/2}
 Group   3 Type N   : 8s6p5d3f1g contracted to 8s6p4d3f1g pattern {11111111/111111/2111/111/1}
 Group   4 Type O   : 8s6p5d3f1g contracted to 8s6p4d3f1g pattern {11111111/111111/2111/111/1}

Atom   0C    basis set group =>   1
Atom   1C    basis set group =>   1
Atom   2C    basis set group =>   1
Atom   3H    basis set group =>   2
Atom   4H    basis set group =>   2
Atom   5C    basis set group =>   1
Atom   6H    basis set group =>   2
Atom   7H    basis set group =>   2
Atom   8C    basis set group =>   1
Atom   9N    basis set group =>   3
Atom  10H    basis set group =>   2
Atom  11H    basis set group =>   2
Atom  12C    basis set group =>   1
Atom  13C    basis set group =>   1
Atom  14H    basis set group =>   2
Atom  15H    basis set group =>   2
Atom  16C    basis set group =>   1
Atom  17H    basis set group =>   2
Atom  18H    basis set group =>   2
Atom  19C    basis set group =>   1
Atom  20H    basis set group =>   2
Atom  21H    basis set group =>   2
Atom  22C    basis set group =>   1
Atom  23C    basis set group =>   1
Atom  24C    basis set group =>   1
Atom  25O    basis set group =>   4
Atom  26C    basis set group =>   1
Atom  27C    basis set group =>   1
Atom  28C    basis set group =>   1
Atom  29O    basis set group =>   4
Atom  30C    basis set group =>   1
Atom  31C    basis set group =>   1
Atom  32C    basis set group =>   1
Atom  33N    basis set group =>   3
Atom  34C    basis set group =>   1
Atom  35C    basis set group =>   1
Atom  36H    basis set group =>   2
Atom  37H    basis set group =>   2
Atom  38H    basis set group =>   2
Atom  39H    basis set group =>   2
Atom  40H    basis set group =>   2
Atom  41H    basis set group =>   2
------------------------------------------------------------------------------
                           ORCA GTO INTEGRAL CALCULATION
                           -- RI-GTO INTEGRALS CHOSEN --
------------------------------------------------------------------------------
------------------------------------------------------------------------------
                   ___                                                        
                  /   \      - P O W E R E D   B Y -                         
                 /     \                                                     
                 |  |  |   _    _      __       _____    __    __             
                 |  |  |  | |  | |    /  \     |  _  \  |  |  /  |          
                  \  \/   | |  | |   /    \    | | | |  |  | /  /          
                 / \  \   | |__| |  /  /\  \   | |_| |  |  |/  /          
                |  |  |   |  __  | /  /__\  \  |    /   |      \           
                |  |  |   | |  | | |   __   |  |    \   |  |\   \          
                \     /   | |  | | |  |  |  |  | |\  \  |  | \   \       
                 \___/    |_|  |_| |__|  |__|  |_| \__\ |__|  \__/        
                                                                              
                      - O R C A' S   B I G   F R I E N D -                    
                                      &                                       
                       - I N T E G R A L  F E E D E R -                       
                                                                              
 v1 FN, 2020, v2 2021                                                         
------------------------------------------------------------------------------


Reading SHARK input file NMU-1_ES.SHARKINP.tmp ... ok
----------------------
SHARK INTEGRAL PACKAGE
----------------------

Number of atoms                             ...     42
Number of basis functions                   ...    684
Number of shells                            ...    312
Maximum angular momentum                    ...      2
Integral batch strategy                     ... SHARK/LIBINT Hybrid
RI-J (if used) integral strategy            ... SPLIT-RIJ (Revised 2003 algorithm where possible)
Printlevel                                  ...      1
Contraction scheme used                     ... SEGMENTED contraction
Coulomb Range Separation                    ... NOT USED
Exchange Range Separation                   ... NOT USED
Finite Nucleus Model                        ... NOT USED
Auxiliary Coulomb fitting basis             ... AVAILABLE
   # of basis functions in Aux-J            ...   1374
   # of shells in Aux-J                     ...    450
   Maximum angular momentum in Aux-J        ...      4
Auxiliary J/K fitting basis                 ... NOT available
Auxiliary Correlation fitting basis         ... AVAILABLE
   # of basis functions in Aux-C            ...   2094
   # of shells in Aux-C                     ...    654
   Maximum angular momentum in Aux-C        ...      4
Auxiliary 'external' fitting basis          ... NOT available
Integral threshold                          ...     2.500000e-11
Primitive cut-off                           ...     2.500000e-12
Primitive pair pre-selection threshold      ...     2.500000e-12

Calculating pre-screening integrals         ... done (  0.2 sec) Dimension = 312
Organizing shell pair data                  ... done (  1.9 sec)
Shell pair information
Total number of shell pairs                 ...     48828
Shell pairs after pre-screening             ...     32529
Total number of primitive shell pairs       ...    159912
Primitive shell pairs kept                  ...     70055
          la=0 lb=0:   9571 shell pairs
          la=1 lb=0:  10812 shell pairs
          la=1 lb=1:   3038 shell pairs
          la=2 lb=0:   5332 shell pairs
          la=2 lb=1:   3016 shell pairs
          la=2 lb=2:    760 shell pairs

Calculating one electron integrals          ... done (  0.3 sec)
Calculating RI/J V-Matrix + Cholesky decomp.... done (  3.3 sec)
Calculating RI/C V-Matrix + Cholesky decomp.... done (  0.8 sec)
Calculating Nuclear repulsion               ... done (  0.1 sec) ENN=   1954.428376020860 Eh

SHARK setup successfully completed in  11.7 seconds

Maximum memory used throughout the entire GTOINT-calculation: 239.5 MB
-------------------------------------------------------------------------------
                                 ORCA SCF
-------------------------------------------------------------------------------

------------
SCF SETTINGS
------------
Hamiltonian:
 Density Functional     Method          .... DFT(GTOs)
 Exchange Functional    Exchange        .... B88
   X-Alpha parameter    XAlpha          ....  0.666667
   Becke's b parameter  XBeta           ....  0.004200
 Correlation Functional Correlation     .... LYP
 LDA part of GGA corr.  LDAOpt          .... VWN-3
 Gradients option       PostSCFGGA      .... off
 Hybrid DFT is turned on
   Fraction HF Exchange ScalHFX         ....  0.200000
   Scaling of DF-GGA-X  ScalDFX         ....  0.720000
   Scaling of DF-GGA-C  ScalDFC         ....  0.810000
   Scaling of DF-LDA-C  ScalLDAC        ....  1.000000
   Perturbative correction              ....  0.000000
   Density functional embedding theory  .... OFF
   NL short-range parameter             ....  4.800000
 RI-approximation to the Coulomb term is turned on
   Number of AuxJ basis functions       .... 1374
   RIJ-COSX (HFX calculated with COS-X)).... on


General Settings:
 Integral files         IntName         .... NMU-1_ES
 Hartree-Fock type      HFTyp           .... RHF
 Total Charge           Charge          ....    0
 Multiplicity           Mult            ....    1
 Number of Electrons    NEL             ....  168
 Basis Dimension        Dim             ....  684
 Nuclear Repulsion      ENuc            ....   1954.4283760209 Eh

Convergence Acceleration:
 DIIS                   CNVDIIS         .... on
   Start iteration      DIISMaxIt       ....    12
   Startup error        DIISStart       ....  0.200000
   # of expansion vecs  DIISMaxEq       ....     5
   Bias factor          DIISBfac        ....   1.050
   Max. coefficient     DIISMaxC        ....  10.000
 Trust-Rad. Augm. Hess. CNVTRAH         .... auto
   Auto Start mean grad. ratio tolernc. ....  1.125000
   Auto Start start iteration           ....    20
   Auto Start num. interpolation iter.  ....    10
   Max. Number of Micro iterations      ....    16
   Max. Number of Macro iterations      .... Maxiter - #DIIS iter
   Number of Davidson start vectors     ....     2
   Converg. threshold I  (grad. norm)   ....   1.000e-05
   Converg. threshold II (energy diff.) ....   1.000e-08
   Grad. Scal. Fac. for Micro threshold ....   0.100
   Minimum threshold for Micro iter.    ....   0.010
   NR start threshold (gradient norm)   ....   0.001
   Initial trust radius                 ....   0.400
   Minimum AH scaling param. (alpha)    ....   1.000
   Maximum AH scaling param. (alpha)    .... 1000.000
   Orbital update algorithm             .... Taylor
   White noise on init. David. guess    .... on
   Maximum white noise                  ....   0.010
   Quad. conv. algorithm                .... NR
 SOSCF                  CNVSOSCF        .... on
   Start iteration      SOSCFMaxIt      ....   150
   Startup grad/error   SOSCFStart      ....  0.003300
 Level Shifting         CNVShift        .... on
   Level shift para.    LevelShift      ....    0.2500
   Turn off err/grad.   ShiftErr        ....    0.0010
 Zerner damping         CNVZerner       .... off
 Static damping         CNVDamp         .... on
   Fraction old density DampFac         ....    0.7000
   Max. Damping (<1)    DampMax         ....    0.9800
   Min. Damping (>=0)   DampMin         ....    0.0000
   Turn off err/grad.   DampErr         ....    0.1000
 Fernandez-Rico         CNVRico         .... off

SCF Procedure:
 Maximum # iterations   MaxIter         ....   125
 SCF integral mode      SCFMode         .... Direct
   Integral package                     .... SHARK and LIBINT hybrid scheme
 Reset frequency        DirectResetFreq ....    20
 Integral Threshold     Thresh          ....  2.500e-11 Eh
 Primitive CutOff       TCut            ....  2.500e-12 Eh

Convergence Tolerance:
 Convergence Check Mode ConvCheckMode   .... Total+1el-Energy
 Convergence forced     ConvForced      .... 1
 Energy Change          TolE            ....  1.000e-08 Eh
 1-El. energy change                    ....  1.000e-05 Eh
 Orbital Gradient       TolG            ....  1.000e-05
 Orbital Rotation angle TolX            ....  1.000e-05
 DIIS Error             TolErr          ....  5.000e-07


Diagonalization of the overlap matrix:
Smallest eigenvalue                        ... 3.048e-06
Time for diagonalization                   ...    0.087 sec
Threshold for overlap eigenvalues          ... 1.000e-08
Number of eigenvalues below threshold      ... 0
Time for construction of square roots      ...    1.788 sec
Total time needed                          ...    1.876 sec

Time for model grid setup =    3.196 sec

------------------------------
INITIAL GUESS: MODEL POTENTIAL
------------------------------
Loading Hartree-Fock densities                     ... done
Calculating cut-offs                               ... done
Initializing the effective Hamiltonian             ... done
Setting up the integral package (SHARK)            ... done
Starting the Coulomb interaction                   ... done (   3.7 sec)
Reading the grid                                   ... done
Mapping shells                                     ... done
Starting the XC term evaluation                    ... done (   1.9 sec)
  promolecular density results
     # of electrons  =    167.999453117
     EX              =   -137.994355730
     EC              =     -5.748447413
     EX+EC           =   -143.742803143
Transforming the Hamiltonian                       ... done (   0.1 sec)
Diagonalizing the Hamiltonian                      ... done (   0.1 sec)
Back transforming the eigenvectors                 ... done (   0.0 sec)
Now organizing SCF variables                       ... done
                      ------------------
                      INITIAL GUESS DONE (   9.4 sec)
                      ------------------
-------------------
DFT GRID GENERATION
-------------------

General Integration Accuracy     IntAcc      ... 4.388
Radial Grid Type                 RadialGrid  ... OptM3 with GC (2021)
Angular Grid (max. ang.)         AngularGrid ... 4 (Lebedev-302)
Angular grid pruning method      GridPruning ... 4 (adaptive)
Weight generation scheme         WeightScheme... Becke
Basis function cutoff            BFCut       ... 1.0000e-11
Integration weight cutoff        WCut        ... 1.0000e-14
Angular grids for H and He will be reduced by one unit
Partially contracted basis set               ... off
Rotationally invariant grid construction     ... off

Total number of grid points                  ...   200168
Total number of batches                      ...     3150
Average number of points per batch           ...       63
Average number of grid points per atom       ...     4766
Time for grid setup =    6.533 sec

--------------------
COSX GRID GENERATION
--------------------

GRIDX 1
-------
General Integration Accuracy     IntAcc      ... 3.816
Radial Grid Type                 RadialGrid  ... OptM3 with GC (2021)
Angular Grid (max. ang.)         AngularGrid ... 1 (Lebedev-50)
Angular grid pruning method      GridPruning ... 4 (adaptive)
Weight generation scheme         WeightScheme... Becke
Basis function cutoff            BFCut       ... 1.0000e-11
Integration weight cutoff        WCut        ... 1.0000e-14
Angular grids for H and He will be reduced by one unit
Partially contracted basis set               ... on
Rotationally invariant grid construction     ... off

Total number of grid points                  ...    25409
Total number of batches                      ...      416
Average number of points per batch           ...       61
Average number of grid points per atom       ...      605
UseSFitting                                  ... on

GRIDX 2
-------
General Integration Accuracy     IntAcc      ... 4.020
Radial Grid Type                 RadialGrid  ... OptM3 with GC (2021)
Angular Grid (max. ang.)         AngularGrid ... 2 (Lebedev-110)
Angular grid pruning method      GridPruning ... 4 (adaptive)
Weight generation scheme         WeightScheme... Becke
Basis function cutoff            BFCut       ... 1.0000e-11
Integration weight cutoff        WCut        ... 1.0000e-14
Angular grids for H and He will be reduced by one unit
Partially contracted basis set               ... on
Rotationally invariant grid construction     ... off

Total number of grid points                  ...    55265
Total number of batches                      ...      887
Average number of points per batch           ...       62
Average number of grid points per atom       ...     1316
UseSFitting                                  ... on

GRIDX 3
-------
General Integration Accuracy     IntAcc      ... 4.338
Radial Grid Type                 RadialGrid  ... OptM3 with GC (2021)
Angular Grid (max. ang.)         AngularGrid ... 3 (Lebedev-194)
Angular grid pruning method      GridPruning ... 4 (adaptive)
Weight generation scheme         WeightScheme... Becke
Basis function cutoff            BFCut       ... 1.0000e-11
Integration weight cutoff        WCut        ... 1.0000e-14
Angular grids for H and He will be reduced by one unit
Partially contracted basis set               ... on
Rotationally invariant grid construction     ... off

Total number of grid points                  ...   120803
Total number of batches                      ...     1912
Average number of points per batch           ...       63
Average number of grid points per atom       ...     2876
UseSFitting                                  ... on

Time for X-Grid setup             =   14.480 sec


--------------------
CPCM SOLVATION MODEL
--------------------
CPCM parameters:
  Epsilon                                         ...      80.4000
  Refrac                                          ...       1.3300
  Rsolv                                           ...       1.3000
  Surface type                                    ... GAUSSIAN VDW
  Epsilon function type                           ...         CPCM
Radii:
 Radius for C  used is    3.8550 Bohr (=   2.0400 Ang.)
 Radius for H  used is    2.4944 Bohr (=   1.3200 Ang.)
 Radius for N  used is    3.5149 Bohr (=   1.8600 Ang.)
 Radius for O  used is    3.4469 Bohr (=   1.8240 Ang.)
Calculating surface                               ...        done! (  0.0s)
GEPOL surface points                              ...         2129
GEPOL Volume                                      ...    2439.3202
GEPOL Surface-area                                ...    1208.7092
Calculating surface distance matrix               ...        done! (  0.0s)
Performing Cholesky decomposition & store         ...        done! (  2.2s)
Overall time for CPCM initialization              ...                 2.2s
--------------
SCF ITERATIONS
--------------
ITER       Energy         Delta-E        Max-DP      RMS-DP      [F,P]     Damp
               ***  Starting incremental Fock matrix formation  ***
  0  -1032.7402795186   0.000000000000 0.09830604  0.00121614  0.3091295 0.7000
  1  -1033.0005745520  -0.260295033389 0.09821450  0.00101324  0.1212334 0.7000
                               ***Turning on DIIS***
  2  -1033.1091592469  -0.108584694865 0.11077592  0.00175835  0.0409488 0.0000
  3  -1033.2797449100  -0.170585663127 0.09307874  0.00076146  0.0513387 0.0000
  4  -1033.3144127398  -0.034667829769 0.02413020  0.00022971  0.0179197 0.0000
  5  -1033.3166256831  -0.002212943271 0.01498047  0.00012175  0.0108285 0.0000
                      *** Initiating the SOSCF procedure ***
                           *** Shutting down DIIS ***
                      *** Re-Reading the Fockian *** 
                      *** Removing any level shift *** 
ITER      Energy       Delta-E        Grad      Rot      Max-DP    RMS-DP
  6  -1033.31683405  -0.0002083632  0.000269  0.000269  0.004742  0.000044
               *** Restarting incremental Fock matrix formation ***
  7  -1033.31685131  -0.0000172652  0.000177  0.000882  0.006683  0.000083
  8  -1033.31684948   0.0000018337  0.000250  0.000643  0.001119  0.000015
  9  -1033.31685436  -0.0000048819  0.000022  0.000138  0.001141  0.000014
 10  -1033.31685429   0.0000000691  0.000028  0.000066  0.000581  0.000004
 11  -1033.31685442  -0.0000001248  0.000005  0.000020  0.000675  0.000005
 12  -1033.31685441   0.0000000004  0.000006  0.000014  0.000188  0.000002
                  ***Gradient check signals convergence***
              ***Rediagonalizing the Fockian in SOSCF/NRSCF***

               *****************************************************
               *                     SUCCESS                       *
               *           SCF CONVERGED AFTER  13 CYCLES          *
               *****************************************************

Old exchange energy                            =    -28.049363458 Eh
New exchange energy                            =    -28.049371551 Eh
Exchange energy change after final integration =     -0.000008093 Eh
Total energy after final integration           =  -1033.316862505 Eh
Final COS-X integration done in                =   184.346 sec

----------------
TOTAL SCF ENERGY
----------------

Total Energy       :        -1033.31686250 Eh          -28117.98132 eV

Components:
Nuclear Repulsion  :         1954.42837602 Eh           53182.69987 eV
Electronic Energy  :        -2987.74523853 Eh          -81300.68119 eV
One Electron Energy:        -5284.78616571 Eh         -143806.34254 eV
Two Electron Energy:         2297.04092718 Eh           62505.66135 eV
Max COSX asymmetry :            0.00000181 Eh               0.00005 eV
CPCM Dielectric    :           -0.02523287 Eh              -0.68662 eV

Virial components:
Potential Energy   :        -2062.50808585 Eh          -56123.69829 eV
Kinetic Energy     :         1029.19122334 Eh           28005.71697 eV
Virial Ratio       :            2.00400862


DFT components:
N(Alpha)           :       83.999932592760 electrons
N(Beta)            :       83.999932592760 electrons
N(Total)           :      167.999865185520 electrons
E(X)               :     -111.445395808914 Eh       
E(C)               :       -7.387185433758 Eh       
E(XC)              :     -118.832581242672 Eh       
DFET-embed. en.    :        0.000000000000 Eh       
CPCM Solvation Model Properties:
Surface-charge          :           -0.03888881
Charge-correction       :           -0.00046535 Eh              -0.01266 eV
Free-energy (cav+disp)  :  This term is not implemented in the current solvation scheme

---------------
SCF CONVERGENCE
---------------

  Last Energy change         ...    3.1000e-09  Tolerance :   1.0000e-08
  Last MAX-Density change    ...    1.9984e-15  Tolerance :   1.0000e-07
  Last RMS-Density change    ...    1.6320e-17  Tolerance :   5.0000e-09
  Last Orbital Gradient      ...    1.6751e-06  Tolerance :   1.0000e-05
  Last Orbital Rotation      ...    8.9852e-06  Tolerance :   1.0000e-05

             **** THE GBW FILE WAS UPDATED (NMU-1_ES.gbw) ****
             **** DENSITY NMU-1_ES.scfp WAS UPDATED ****
             **** ENERGY FILE WAS UPDATED (NMU-1_ES.en.tmp) ****
             **** THE GBW FILE WAS UPDATED (NMU-1_ES.gbw) ****
             **** DENSITY NMU-1_ES.scfp WAS UPDATED ****
----------------
ORBITAL ENERGIES
----------------

  NO   OCC          E(Eh)            E(eV) 
   0   2.0000     -19.197660      -522.3949 
   1   2.0000     -19.111419      -520.0482 
   2   2.0000     -14.336021      -390.1030 
   3   2.0000     -14.318816      -389.6348 
   4   2.0000     -10.306037      -280.4415 
   5   2.0000     -10.242409      -278.7101 
   6   2.0000     -10.221943      -278.1532 
   7   2.0000     -10.207246      -277.7533 
   8   2.0000     -10.205781      -277.7134 
   9   2.0000     -10.199958      -277.5550 
  10   2.0000     -10.196681      -277.4658 
  11   2.0000     -10.195941      -277.4457 
  12   2.0000     -10.195630      -277.4372 
  13   2.0000     -10.194457      -277.4053 
  14   2.0000     -10.189868      -277.2804 
  15   2.0000     -10.181580      -277.0549 
  16   2.0000     -10.180271      -277.0193 
  17   2.0000     -10.180245      -277.0185 
  18   2.0000     -10.178788      -276.9789 
  19   2.0000     -10.175002      -276.8759 
  20   2.0000     -10.170877      -276.7636 
  21   2.0000     -10.168520      -276.6995 
  22   2.0000     -10.164859      -276.5999 
  23   2.0000     -10.164535      -276.5911 
  24   2.0000      -1.142756       -31.0960 
  25   2.0000      -1.047072       -28.4923 
  26   2.0000      -0.967682       -26.3320 
  27   2.0000      -0.961188       -26.1553 
  28   2.0000      -0.875350       -23.8195 
  29   2.0000      -0.848813       -23.0974 
  30   2.0000      -0.828789       -22.5525 
  31   2.0000      -0.810320       -22.0499 
  32   2.0000      -0.783884       -21.3306 
  33   2.0000      -0.774157       -21.0659 
  34   2.0000      -0.769277       -20.9331 
  35   2.0000      -0.751113       -20.4388 
  36   2.0000      -0.697099       -18.9690 
  37   2.0000      -0.678588       -18.4653 
  38   2.0000      -0.668230       -18.1835 
  39   2.0000      -0.645093       -17.5539 
  40   2.0000      -0.639289       -17.3960 
  41   2.0000      -0.633779       -17.2460 
  42   2.0000      -0.626450       -17.0466 
  43   2.0000      -0.601015       -16.3545 
  44   2.0000      -0.564402       -15.3582 
  45   2.0000      -0.546987       -14.8843 
  46   2.0000      -0.537713       -14.6319 
  47   2.0000      -0.529017       -14.3953 
  48   2.0000      -0.511055       -13.9065 
  49   2.0000      -0.501077       -13.6350 
  50   2.0000      -0.495182       -13.4746 
  51   2.0000      -0.486530       -13.2392 
  52   2.0000      -0.475073       -12.9274 
  53   2.0000      -0.472488       -12.8570 
  54   2.0000      -0.467504       -12.7214 
  55   2.0000      -0.452246       -12.3063 
  56   2.0000      -0.449024       -12.2186 
  57   2.0000      -0.442950       -12.0533 
  58   2.0000      -0.436255       -11.8711 
  59   2.0000      -0.433353       -11.7921 
  60   2.0000      -0.426855       -11.6153 
  61   2.0000      -0.417659       -11.3651 
  62   2.0000      -0.412132       -11.2147 
  63   2.0000      -0.410902       -11.1812 
  64   2.0000      -0.409974       -11.1560 
  65   2.0000      -0.402939       -10.9645 
  66   2.0000      -0.399656       -10.8752 
  67   2.0000      -0.379417       -10.3245 
  68   2.0000      -0.376555       -10.2466 
  69   2.0000      -0.365567        -9.9476 
  70   2.0000      -0.357910        -9.7392 
  71   2.0000      -0.352900        -9.6029 
  72   2.0000      -0.343333        -9.3426 
  73   2.0000      -0.340322        -9.2606 
  74   2.0000      -0.335092        -9.1183 
  75   2.0000      -0.322852        -8.7853 
  76   2.0000      -0.318040        -8.6543 
  77   2.0000      -0.302461        -8.2304 
  78   2.0000      -0.292276        -7.9532 
  79   2.0000      -0.283763        -7.7216 
  80   2.0000      -0.270274        -7.3545 
  81   2.0000      -0.259510        -7.0616 
  82   2.0000      -0.240104        -6.5336 
  83   2.0000      -0.196430        -5.3451 
  84   0.0000      -0.063742        -1.7345 
  85   0.0000      -0.034882        -0.9492 
  86   0.0000      -0.023763        -0.6466 
  87   0.0000      -0.009741        -0.2651 
  88   0.0000       0.004475         0.1218 
  89   0.0000       0.037874         1.0306 
  90   0.0000       0.049506         1.3471 
  91   0.0000       0.058796         1.5999 
  92   0.0000       0.066605         1.8124 
  93   0.0000       0.068169         1.8550 
  94   0.0000       0.068411         1.8616 
  95   0.0000       0.080112         2.1800 
  96   0.0000       0.081315         2.2127 
  97   0.0000       0.091600         2.4926 
  98   0.0000       0.093339         2.5399 
  99   0.0000       0.095967         2.6114 
 100   0.0000       0.101091         2.7508 
 101   0.0000       0.103303         2.8110 
 102   0.0000       0.106880         2.9084 
 103   0.0000       0.111490         3.0338 
 104   0.0000       0.122068         3.3216 
 105   0.0000       0.123844         3.3700 
 106   0.0000       0.124705         3.3934 
 107   0.0000       0.126510         3.4425 
 108   0.0000       0.134437         3.6582 
 109   0.0000       0.140397         3.8204 
 110   0.0000       0.147437         4.0120 
 111   0.0000       0.148902         4.0518 
 112   0.0000       0.152559         4.1513 
 113   0.0000       0.155404         4.2288 
 114   0.0000       0.165350         4.4994 
 115   0.0000       0.168692         4.5903 
 116   0.0000       0.176793         4.8108 
 117   0.0000       0.180352         4.9076 
 118   0.0000       0.181870         4.9489 
 119   0.0000       0.184675         5.0253 
 120   0.0000       0.188841         5.1386 
 121   0.0000       0.194547         5.2939 
 122   0.0000       0.198316         5.3964 
 123   0.0000       0.199890         5.4393 
 124   0.0000       0.206533         5.6201 
 125   0.0000       0.210613         5.7311 
 126   0.0000       0.215775         5.8715 
 127   0.0000       0.219003         5.9594 
 128   0.0000       0.220677         6.0049 
 129   0.0000       0.223380         6.0785 
 130   0.0000       0.226781         6.1710 
 131   0.0000       0.235554         6.4097 
 132   0.0000       0.238428         6.4880 
 133   0.0000       0.239042         6.5047 
 134   0.0000       0.242992         6.6121 
 135   0.0000       0.245189         6.6719 
 136   0.0000       0.254455         6.9241 
 137   0.0000       0.261263         7.1093 
 138   0.0000       0.267065         7.2672 
 139   0.0000       0.270704         7.3662 
 140   0.0000       0.276955         7.5363 
 141   0.0000       0.279360         7.6018 
 142   0.0000       0.286968         7.8088 
 143   0.0000       0.290632         7.9085 
 144   0.0000       0.294505         8.0139 
 145   0.0000       0.298736         8.1290 
 146   0.0000       0.306252         8.3335 
 147   0.0000       0.312115         8.4931 
 148   0.0000       0.316014         8.5992 
 149   0.0000       0.321124         8.7382 
 150   0.0000       0.324126         8.8199 
 151   0.0000       0.327755         8.9187 
 152   0.0000       0.329916         8.9775 
 153   0.0000       0.338189         9.2026 
 154   0.0000       0.340284         9.2596 
 155   0.0000       0.344788         9.3822 
 156   0.0000       0.347872         9.4661 
 157   0.0000       0.353891         9.6299 
 158   0.0000       0.357035         9.7154 
 159   0.0000       0.358754         9.7622 
 160   0.0000       0.360962         9.8223 
 161   0.0000       0.367870        10.0102 
 162   0.0000       0.374269        10.1844 
 163   0.0000       0.381395        10.3783 
 164   0.0000       0.384677        10.4676 
 165   0.0000       0.388186        10.5631 
 166   0.0000       0.393137        10.6978 
 167   0.0000       0.398090        10.8326 
 168   0.0000       0.406560        11.0631 
 169   0.0000       0.408095        11.1048 
 170   0.0000       0.411283        11.1916 
 171   0.0000       0.415579        11.3085 
 172   0.0000       0.420136        11.4325 
 173   0.0000       0.426135        11.5957 
 174   0.0000       0.428832        11.6691 
 175   0.0000       0.431099        11.7308 
 176   0.0000       0.433070        11.7844 
 177   0.0000       0.434259        11.8168 
 178   0.0000       0.438736        11.9386 
 179   0.0000       0.442754        12.0479 
 180   0.0000       0.447147        12.1675 
 181   0.0000       0.448145        12.1947 
 182   0.0000       0.452244        12.3062 
 183   0.0000       0.453504        12.3405 
 184   0.0000       0.455254        12.3881 
 185   0.0000       0.462482        12.5848 
 186   0.0000       0.465172        12.6580 
 187   0.0000       0.467920        12.7327 
 188   0.0000       0.471304        12.8248 
 189   0.0000       0.474343        12.9075 
 190   0.0000       0.475634        12.9427 
 191   0.0000       0.482371        13.1260 
 192   0.0000       0.485261        13.2046 
 193   0.0000       0.486633        13.2420 
 194   0.0000       0.489824        13.3288 
 195   0.0000       0.496636        13.5142 
 196   0.0000       0.498223        13.5573 
 197   0.0000       0.501677        13.6513 
 198   0.0000       0.512981        13.9589 
 199   0.0000       0.514764        14.0074 
 200   0.0000       0.516568        14.0565 
 201   0.0000       0.521855        14.2004 
 202   0.0000       0.531262        14.4564 
 203   0.0000       0.538043        14.6409 
 204   0.0000       0.542289        14.7564 
 205   0.0000       0.552270        15.0280 
 206   0.0000       0.560892        15.2626 
 207   0.0000       0.565275        15.3819 
 208   0.0000       0.571619        15.5545 
 209   0.0000       0.575389        15.6571 
 210   0.0000       0.576766        15.6946 
 211   0.0000       0.581127        15.8133 
 212   0.0000       0.594295        16.1716 
 213   0.0000       0.603896        16.4328 
 214   0.0000       0.612044        16.6546 
 215   0.0000       0.618410        16.8278 
 216   0.0000       0.623031        16.9535 
 217   0.0000       0.624568        16.9954 
 218   0.0000       0.633269        17.2321 
 219   0.0000       0.637458        17.3461 
 220   0.0000       0.641713        17.4619 
 221   0.0000       0.650681        17.7059 
 222   0.0000       0.655508        17.8373 
 223   0.0000       0.660873        17.9833 
 224   0.0000       0.662504        18.0276 
 225   0.0000       0.671726        18.2786 
 226   0.0000       0.673341        18.3225 
 227   0.0000       0.678920        18.4743 
 228   0.0000       0.687271        18.7016 
 229   0.0000       0.693335        18.8666 
 230   0.0000       0.697600        18.9827 
 231   0.0000       0.701301        19.0834 
 232   0.0000       0.711796        19.3690 
 233   0.0000       0.713906        19.4264 
 234   0.0000       0.723206        19.6794 
 235   0.0000       0.726106        19.7584 
 236   0.0000       0.731089        19.8939 
 237   0.0000       0.733315        19.9545 
 238   0.0000       0.741174        20.1684 
 239   0.0000       0.744388        20.2558 
 240   0.0000       0.751646        20.4533 
 241   0.0000       0.752681        20.4815 
 242   0.0000       0.765736        20.8367 
 243   0.0000       0.769794        20.9472 
 244   0.0000       0.773377        21.0447 
 245   0.0000       0.780757        21.2455 
[...]

-------
TIMINGS
-------

Total SCF time: 0 days 0 hours 16 min 2 sec 

Total time                  ....     962.982 sec
Sum of individual times     ....     925.662 sec  ( 96.1%)

Fock matrix formation       ....     893.045 sec  ( 92.7%)
  Split-RI-J                ....      51.835 sec  (  5.8% of F)
  Chain of spheres X        ....     657.564 sec  ( 73.6% of F)
  XC integration            ....      75.672 sec  (  8.5% of F)
    Basis function eval.    ....      11.434 sec  ( 15.1% of XC)
    Density eval.           ....      28.831 sec  ( 38.1% of XC)
    XC-Functional eval.     ....       9.650 sec  ( 12.8% of XC)
    XC-Potential eval.      ....       8.788 sec  ( 11.6% of XC)
Diagonalization             ....       0.137 sec  (  0.0%)
Density matrix formation    ....       0.086 sec  (  0.0%)
Population analysis         ....       0.924 sec  (  0.1%)
Initial guess               ....       0.192 sec  (  0.0%)
Orbital Transformation      ....       0.000 sec  (  0.0%)
Orbital Orthonormalization  ....       0.137 sec  (  0.0%)
DIIS solution               ....       0.040 sec  (  0.0%)
SOSCF solution              ....       4.599 sec  (  0.5%)
Grid generation             ....      26.638 sec  (  2.8%)

Maximum memory used throughout the entire SCF-calculation: 354.0 MB
------------------------------------------------------------------------------
                        ORCA TD-DFT/TDA CALCULATION
------------------------------------------------------------------------------

Input orbitals are from        ... NMU-1_ES.gbw
CI-vector output               ... NMU-1_ES.cis
Tamm-Dancoff approximation     ... operative
CIS-Integral strategy          ... AO-integrals
Integral handling              ... AO integral Direct
Max. core memory used          ... 3000 MB
Reference state                ... RHF
Generation of triplets         ... off
Follow IRoot                   ... off
Number of operators            ... 1
Orbital ranges used for CIS calculation:
 Operator 0:  Orbitals  24... 83  to  84...683
XAS localization array:
 Operator 0:  Orbitals  -1... -1

-------------------
XC-INTEGRATION GRID
-------------------

General Integration Accuracy     IntAcc      ... 3.467
Radial Grid Type                 RadialGrid  ... OptM3 with GC (2021)
Angular Grid (max. ang.)         AngularGrid ... 1 (Lebedev-50)
Angular grid pruning method      GridPruning ... 4 (adaptive)
Weight generation scheme         WeightScheme... Becke
Basis function cutoff            BFCut       ... 1.0000e-11
Integration weight cutoff        WCut        ... 1.0000e-14
Angular grids for H and He will be reduced by one unit
Partially contracted basis set               ... off
Rotationally invariant grid construction     ... off

Total number of grid points                  ...    29198
Total number of batches                      ...      475
Average number of points per batch           ...       61
Average number of grid points per atom       ...      695

---------------------
COSX-INTEGRATION GRID
---------------------

General Integration Accuracy     IntAcc      ... 3.067
Radial Grid Type                 RadialGrid  ... OptM3 with GC (2021)
Angular Grid (max. ang.)         AngularGrid ... 1 (Lebedev-50)
Angular grid pruning method      GridPruning ... 4 (adaptive)
Weight generation scheme         WeightScheme... Becke
Basis function cutoff            BFCut       ... 1.0000e-11
Integration weight cutoff        WCut        ... 1.0000e-14
Angular grids for H and He will be reduced by one unit
Partially contracted basis set               ... on
Rotationally invariant grid construction     ... off

Total number of grid points                  ...    13515
Total number of batches                      ...      237
Average number of points per batch           ...       57
Average number of grid points per atom       ...      322

---------------
TD-DFT XC SETUP
---------------

DFT calculation                         ... on
Name of the grid file                   ... NMU-1_ES.grid_cis.tmp
Exchange functional (TD-DFT)            ... B88
   X-Alpha parameter    XAlpha (TD-DFT) ...  0.666667
   Becke's b parameter  XBeta (TD-DFT)  ...  0.004200
Correlation functional (TD-DFT)         ... LYP
 LDA part of GGA corr.  LDAOpt (TD-DFT) ... VWN-3
Hybrid DFT                              ... on
   Exchange mixing (TD-DFT)             ...  0.200
   GGA exch. scaling (TD-DFT)           ...  0.720
   GGA corr. scaling (TD-DFT)           ...  0.810

Building densities             ... done
Calculating rho(r) on the grid ... done
Building xc-kernel on the grid ... done
                    *** TD-DFT CALCULATION INITIALIZED ***

-----------------------------
    LR-CPCM (equilibrium)
-----------------------------

Setting up LR-CPCM             ... done

------------------------
DAVIDSON-DIAGONALIZATION
------------------------

Dimension of the eigenvalue problem            ...  36000
Number of roots to be determined               ...      5
Maximum size of the expansion space            ...     50
Maximum number of iterations                   ...    100
Convergence tolerance for the residual         ...    2.500e-07
Convergence tolerance for the energies         ...    2.500e-07
Orthogonality tolerance                        ...    1.000e-14
Level Shift                                    ...    0.000e+00
Constructing the preconditioner                ... o.k.
Building the initial guess                     ... o.k.
Number of trial vectors determined             ...     50


                       ****Iteration    0****

   Memory handling for direct AO based CIS:
   Memory per vector needed      ...    21 MB
   Memory needed                 ...   321 MB
   Memory available              ...  3000 MB
   Number of vectors per batch   ...   140
   Number of batches             ...     1
   Time for densities:            0.804
   Time for RI-J (Direct):       17.842
   Time for K (COSX):            65.373
   Time for XC-Integration:      26.089
   Time for LR-CPCM terms:       24.940
   Time for Sigma-Completion:     4.508
   Size of expansion space: 15
   Lowest Energy          :     0.114902858074
   Maximum Energy change  :     0.159309421918 (vector 4)
   Maximum residual norm  :     0.014613453526

                       ****Iteration    1****
   Time for densities:            0.078
   Time for RI-J (Direct):       12.902
   Time for K (COSX):            38.179
   Time for XC-Integration:       9.011
   Time for LR-CPCM terms:       14.390
   Time for Sigma-Completion:     2.614
   Size of expansion space: 20
   Lowest Energy          :     0.100902381126
   Maximum Energy change  :     0.014000476948 (vector 0)
   Maximum residual norm  :     0.000362989198

                       ****Iteration    2****
   Time for densities:            0.058
   Time for RI-J (Direct):       14.100
   Time for K (COSX):            37.631
   Time for XC-Integration:       9.201
   Time for LR-CPCM terms:       15.025
   Time for Sigma-Completion:     2.001
   Size of expansion space: 25
   Lowest Energy          :     0.100575441294
   Maximum Energy change  :     0.000550025361 (vector 3)
   Maximum residual norm  :     0.000060073808

                       ****Iteration    3****
   Time for densities:            0.466
   Time for RI-J (Direct):       14.937
   Time for K (COSX):            36.859
   Time for XC-Integration:       8.757
   Time for LR-CPCM terms:       15.149
   Time for Sigma-Completion:     1.809
   Size of expansion space: 30
   Lowest Energy          :     0.100550466355
   Maximum Energy change  :     0.000102387860 (vector 3)
   Maximum residual norm  :     0.000015746315

                       ****Iteration    4****
   Time for densities:            0.150
   Time for RI-J (Direct):       14.194
   Time for K (COSX):            35.181
   Time for XC-Integration:       8.429
   Time for LR-CPCM terms:       16.047
   Time for Sigma-Completion:     3.033
   Size of expansion space: 35
   Lowest Energy          :     0.100549261815
   Maximum Energy change  :     0.001017878159 (vector 4)
   Maximum residual norm  :     0.001036926225

                       ****Iteration    5****
   Time for densities:            0.099
   Time for RI-J (Direct):       13.038
   Time for K (COSX):            39.954
   Time for XC-Integration:       9.163
   Time for LR-CPCM terms:       14.506
   Time for Sigma-Completion:     1.874
   Size of expansion space: 40
   Lowest Energy          :     0.100549210614
   Maximum Energy change  :     0.001562935497 (vector 4)
   Maximum residual norm  :     0.000091032013

                       ****Iteration    6****
   Time for densities:            0.040
   Time for RI-J (Direct):       15.444
   Time for K (COSX):            37.000
   Time for XC-Integration:       8.837
   Time for LR-CPCM terms:       15.405
   Time for Sigma-Completion:     2.668
   Size of expansion space: 45
   Lowest Energy          :     0.100549208667
   Maximum Energy change  :     0.000117895318 (vector 4)
   Maximum residual norm  :     0.000007108368

                       ****Iteration    7****
   Time for densities:            0.467
   Time for RI-J (Direct):       14.507
   Time for K (COSX):            35.444
   Time for XC-Integration:       9.864
   Time for LR-CPCM terms:       14.844
   Time for Sigma-Completion:     2.922
   Size of expansion space: 50
   Lowest Energy          :     0.100549208565
   Maximum Energy change  :     0.000010312804 (vector 4)
   Maximum residual norm  :     0.000000931334
   Rebuilding the expansion space

                       ****Iteration    8****
   Time for densities:            0.110
   Time for RI-J (Direct):       15.416
   Time for K (COSX):            51.530
   Time for XC-Integration:      18.537
   Time for LR-CPCM terms:       20.834
   Time for Sigma-Completion:     8.429
   Size of expansion space: 10
   Lowest Energy          :     0.100549214850
   Maximum Energy change  :     0.000001658076 (vector 4)
   Maximum residual norm  :     0.000000117787

      *** CONVERGENCE OF RESIDUAL NORM REACHED ***

Storing the converged CI vectors               ... NMU-1_ES.cis1

                 *** DAVIDSON DONE ***

Total time for solving the CIS problem:   985.119sec

------------------------------------
TD-DFT/TDA EXCITED STATES (SINGLETS)
------------------------------------

the weight of the individual excitations are printed if larger than 1.0e-02

STATE  1:  E=   0.100549 au      2.736 eV    22068.0 cm**-1 <S**2> =   0.000000
    83a ->  84a  :     0.969988 (c= -0.98487975)

STATE  2:  E=   0.136287 au      3.709 eV    29911.6 cm**-1 <S**2> =   0.000000
    81a ->  84a  :     0.012144 (c=  0.11020146)
    82a ->  84a  :     0.928855 (c=  0.96377133)
    83a ->  86a  :     0.012476 (c=  0.11169711)
    83a ->  87a  :     0.030904 (c=  0.17579547)

STATE  3:  E=   0.139025 au      3.783 eV    30512.5 cm**-1 <S**2> =   0.000000
    83a ->  85a  :     0.972209 (c= -0.98600663)

STATE  4:  E=   0.149363 au      4.064 eV    32781.3 cm**-1 <S**2> =   0.000000
    81a ->  84a  :     0.011716 (c= -0.10824002)
    82a ->  84a  :     0.018952 (c=  0.13766763)
    82a ->  88a  :     0.010696 (c=  0.10342296)
    83a ->  86a  :     0.909472 (c= -0.95366242)
    83a ->  87a  :     0.010246 (c= -0.10122282)

STATE  5:  E=   0.154242 au      4.197 eV    33852.2 cm**-1 <S**2> =   0.000000
    81a ->  84a  :     0.869080 (c=  0.93224460)
    82a ->  84a  :     0.012235 (c= -0.11061295)
    83a ->  86a  :     0.020094 (c= -0.14175419)
    83a ->  87a  :     0.017030 (c=  0.13049900)
    83a ->  88a  :     0.041575 (c=  0.20389897)


-----------------------------
TD-DFT/TDA-EXCITATION SPECTRA
-----------------------------

Center of mass = ( -2.6954, -5.0979,  0.1087)
Calculating the Dipole integrals                  ... done
Transforming integrals                            ... done
Calculating the Linear Momentum integrals         ... done
Transforming integrals                            ... done
Calculating angular momentum integrals            ... done
Transforming integrals                            ... done

-----------------------------------------------------------------------------
         ABSORPTION SPECTRUM VIA TRANSITION ELECTRIC DIPOLE MOMENTS
-----------------------------------------------------------------------------
State   Energy    Wavelength  fosc         T2        TX        TY        TZ  
        (cm-1)      (nm)                 (au**2)    (au)      (au)      (au) 
-----------------------------------------------------------------------------
   1   22068.0    453.1   1.399997001  20.88525  -4.31496   1.50418  -0.06136
   2   29911.6    334.3   0.025599317   0.28175   0.44789  -0.28285  -0.03380
   3   30512.5    327.7   0.129036302   1.39223  -0.97819   0.65978   0.00772
   4   32781.3    305.1   0.174266219   1.75010   0.17107  -1.23425  -0.44435
   5   33852.2    295.4   0.030343833   0.29509  -0.46849  -0.25148  -0.11118

-----------------------------------------------------------------------------
         ABSORPTION SPECTRUM VIA TRANSITION VELOCITY DIPOLE MOMENTS
-----------------------------------------------------------------------------
State   Energy    Wavelength   fosc        P2         PX        PY        PZ  
        (cm-1)      (nm)                 (au**2)     (au)      (au)      (au) 
-----------------------------------------------------------------------------
   1   22068.0    453.1   0.734467225   0.11078   0.30391  -0.13556  -0.00597
   2   29911.6    334.3   0.008976466   0.00184  -0.04169   0.00814  -0.00552
   3   30512.5    327.7   0.085616105   0.01785   0.11080  -0.07357  -0.01279
   4   32781.3    305.1   0.077387007   0.01734  -0.06626   0.11047   0.02727
   5   33852.2    295.4   0.016290262   0.00377   0.05859  -0.01833   0.00037

-------------------------------------------------------------------
                             CD SPECTRUM
-------------------------------------------------------------------
State  Energy     Wavelength     R         MX        MY        MZ   
       (cm-1)       (nm)     (1e40*cgs)   (au)      (au)      (au)  
-------------------------------------------------------------------
   1   22068.0    453.1    -34.09892   0.04419   0.06785  -0.26531
   2   29911.6    334.3     -4.52920  -0.04176  -0.05758   0.21277
   3   30512.5    327.7      4.04537   0.02498   0.05061  -0.04859
   4   32781.3    305.1    -14.73701   0.07382   0.17277  -0.38114
   5   33852.2    295.4     11.41858  -0.03765  -0.09282   0.15074

-------------------------------------------------------------------
         CD SPECTRUM VIA TRANSITION VELOCITY DIPOLE MOMENTS        
-------------------------------------------------------------------
State  Energy     Wavelength     R         MX        MY        MZ   
       (cm-1)       (nm)     (1e40*cgs)   (au)      (au)      (au)  
-------------------------------------------------------------------
   1   22068.0    453.1    -27.26985   0.04419   0.06785  -0.26531
   2   29911.6    334.3     -0.33992  -0.04176  -0.05758   0.21277
   3   30512.5    327.7      1.13322   0.02498   0.05061  -0.04859
   4   32781.3    305.1    -12.00522   0.07382   0.17277  -0.38114
   5   33852.2    295.4      1.37153  -0.03765  -0.09282   0.15074

Total run time:     1005.365 sec

           *** ORCA-CIS/TD-DFT FINISHED WITHOUT ERROR ***

Maximum memory used throughout the entire CIS-calculation: 529.9 MB

-----------------------
CIS/TD-DFT TOTAL ENERGY
-----------------------

    E(SCF)  =  -1033.318916802 Eh
    DE(CIS) =      0.100549215 Eh (Root  1)
    ----------------------------- ---------
    E(tot)  =  -1033.218367587 Eh


-------------------------   --------------------
FINAL SINGLE POINT ENERGY     -1033.218367586708
-------------------------   --------------------

                                *** OPTIMIZATION RUN DONE ***

                            ***************************************
                            *     ORCA property calculations      *
                            ***************************************

                                    ---------------------
                                    Active property flags
                                    ---------------------
   (+) Dipole Moment


------------------------------------------------------------------------------
                       ORCA ELECTRIC PROPERTIES CALCULATION
------------------------------------------------------------------------------

Dipole Moment Calculation                       ... on
Quadrupole Moment Calculation                   ... off
Polarizability Calculation                      ... off
GBWName                                         ... NMU-1_ES.gbw
Electron density                                ... NMU-1_ES.scfp
The origin for moment calculation is the CENTER OF MASS  = (-2.695441, -5.097856  0.108664)

-------------
DIPOLE MOMENT
-------------
                                X             Y             Z
Electronic contribution:     19.93930      -6.45822       1.35334
Nuclear contribution   :    -24.94425       7.17657      -1.36553
                        -----------------------------------------
Total Dipole Moment    :     -5.00495       0.71835      -0.01219
                        -----------------------------------------
Magnitude (a.u.)       :      5.05625
Magnitude (Debye)      :     12.85198



--------------------
Rotational spectrum 
--------------------
 
Rotational constants in cm-1:     0.021198     0.003944     0.003362 
Rotational constants in MHz :   635.509441   118.236889   100.785741 

 Dipole components along the rotational axes: 
x,y,z [a.u.] :    -4.872424    -1.245465     0.523459 
x,y,z [Debye]:   -12.384718    -3.165720     1.330528 

 

                        *** CIS RELAXED DENSITY ***

------------------------------------------------------------------------------
                       ORCA ELECTRIC PROPERTIES CALCULATION
------------------------------------------------------------------------------

Dipole Moment Calculation                       ... on
Quadrupole Moment Calculation                   ... off
Polarizability Calculation                      ... off
GBWName                                         ... NMU-1_ES.gbw
Electron density                                ... NMU-1_ES.cisp
The origin for moment calculation is the CENTER OF MASS  = (-2.695441, -5.097856  0.108664)

-------------
DIPOLE MOMENT
-------------
                                X             Y             Z
Electronic contribution:     18.06454      -5.30644       1.46336
Nuclear contribution   :    -24.94425       7.17657      -1.36553
                        -----------------------------------------
Total Dipole Moment    :     -6.87971       1.87013       0.09783
                        -----------------------------------------
Magnitude (a.u.)       :      7.13004
Magnitude (Debye)      :     18.12311



--------------------
Rotational spectrum 
--------------------
 
Rotational constants in cm-1:     0.021198     0.003944     0.003362 
Rotational constants in MHz :   635.509441   118.236889   100.785741 

 Dipole components along the rotational axes: 
x,y,z [a.u.] :    -7.050498    -0.915048     0.539048 
x,y,z [Debye]:   -17.920942    -2.325867     1.370151 

 

Timings for individual modules:

Sum of individual times         ...    43826.670 sec (= 730.445 min)
GTO integral calculation        ...      216.522 sec (=   3.609 min)   0.5 %
SCF iterations                  ...    15116.016 sec (= 251.934 min)  34.5 %
CIS module                      ...    10396.899 sec (= 173.282 min)  23.7 %
SCF Gradient evaluation         ...    18076.110 sec (= 301.269 min)  41.2 %
Geometry relaxation             ...       21.122 sec (=   0.352 min)   0.0 %
                             ****ORCA TERMINATED NORMALLY****
TOTAL RUN TIME: 0 days 12 hours 14 minutes 45 seconds 324 msec
