
                                 *****************
                                 * O   R   C   A *
                                 *****************

                                            #,                                       
                                            ###                                      
                                            ####                                     
                                            #####                                    
                                            ######                                   
                                           ########,                                 
                                     ,,################,,,,,                         
                               ,,#################################,,                 
                          ,,##########################################,,             
                       ,#########################################, ''#####,          
                    ,#############################################,,   '####,        
                  ,##################################################,,,,####,       
                ,###########''''           ''''###############################       
              ,#####''   ,,,,##########,,,,          '''####'''          '####       
            ,##' ,,,,###########################,,,                        '##       
           ' ,,###''''                  '''############,,,                           
         ,,##''                                '''############,,,,        ,,,,,,###''
      ,#''                                            '''#######################'''  
     '                                                          ''''####''''         
             ,#######,   #######,   ,#######,      ##                                
            ,#'     '#,  ##    ##  ,#'     '#,    #''#        ,####,   ,####,        
            ##       ##  ##   ,#'  ##            #'  '#       #'       #'  '#        
            ##       ##  #######   ##           ,######,      #####,   #    #        
            '#,     ,#'  ##    ##  '#,     ,#' ,#      #,     #,   #   #,  ,#        
             '#######'   ##     ##  '#######'  #'      '#     '####' # '####'        



                #########################################################
                #                        -***-                          #
                #          Department of theory and spectroscopy        #
                #                                                       #
                #                      Frank Neese                      #
                #                                                       #
                #     Directorship, Architecture, Infrastructure        #
                #                    SHARK, DRIVERS                     #
                #        Core code/Algorithms in most modules           #
                #                                                       #
                #        Max Planck Institute fuer Kohlenforschung      #
                #                Kaiser Wilhelm Platz 1                 #
                #                 D-45470 Muelheim/Ruhr                 #
                #                      Germany                          #
                #                                                       #
                #                  All rights reserved                  #
                #                        -***-                          #
                #########################################################


                         Program Version 6.0.1  -  RELEASE   -


 With contributions from (in alphabetic order):
[Max-Planck-Institut fuer Kohlenforschung]                               
  Daniel Aravena         : Magnetic Suceptibility                        
  Michael Atanasov       : Ab Initio Ligand Field Theory (pilot matlab implementation)
  Alexander A. Auer      : GIAO ZORA, VPT2 properties, NMR spectrum      
  Ute Becker             : All parallelization in ORCA, NUMFREQ, NUMCALC 
  Giovanni Bistoni       : ED, misc. LED, open-shell LED, HFLD           
  Martin Brehm           : Molecular dynamics                            
  Dmytro Bykov           : pre 5.0 version of the SCF Hessian            
  Marcos Casanova-Páez   : Triplet and SCS-CIS(D). UHF-(DLPNO)-IP/EA/STEOM-CCSD. UHF-CVS-IP/STEOM-CCSD   
  Vijay G. Chilkuri      : MRCI spin determinant printing, contributions to CSF-ICE 
  Pauline Colinet        : FMM embedding                                 
  Dipayan Datta          : RHF DLPNO-CCSD density                        
  Achintya Kumar Dutta   : EOM-CC, STEOM-CC                              
  Nicolas Foglia         : Exact transition moments, OPA infrastructure, MCD improvements    
  Dmitry Ganyushin       : Spin-Orbit,Spin-Spin,Magnetic field MRCI      
  Miquel Garcia-Rates    : C-PCM and meta-GGA Hessian, CCSD/C-PCM, Gaussian charge scheme 
  Tiago L. C. Gouveia    : GS-ROHF, GS-ROCIS                             
  Yang Guo               : DLPNO-NEVPT2, F12-NEVPT2, CIM, IAO-localization        
  Andreas Hansen         : Spin unrestricted coupled pair/coupled cluster methods 
  Ingolf Harden          : AUTO-CI MPn and infrastructure                
  Benjamin Helmich-Paris : MC-RPA, TRAH-(SCF,CASSCF), AVAS, COSX integrals, SCF dyn. polar. 
  Lee Huntington         : MR-EOM, pCC                                   
  Robert Izsak           : Overlap fitted RIJCOSX, COSX-SCS-MP3, EOM     
  Riya Kayal             : Wick's Theorem for AUTO-CI, AUTO-CI UHF-CCSDT 
  Emily Kempfer          : AUTO-CI, RHF CISDT and CCSDT                  
  Christian Kollmar      : KDIIS, OOCD, Brueckner-CCSD(T), CCSD density, CASPT2, CASPT2-K, improved NEVPT2 
  Axel Koslowski         : Symmetry handling                             
  Simone Kossmann        : meta-GGA functionals, TD-DFT gradient, OOMP2, (MP2 Hessian; deprecated post 5.0) 
  Lucas Lang             : DCDCAS                                        
  Marvin Lechner         : AUTO-CI (C++ implementation), FIC-MRCC        
  Spencer Leger          : CASSCF response                               
  Dagmar Lenk            : GEPOL surface, SMD, ORCA-2-JSON               
  Dimitrios Liakos       : Extrapolation schemes; Compound Job, initial MDCI parallelization 
  Dimitrios Manganas     : Further ROCIS development; embedding schemes. LFT, Crystal Embedding 
  Dimitrios Pantazis     : SARC Basis sets                               
  Anastasios Papadopoulos: AUTO-CI, single reference methods and gradients 
  Taras Petrenko         : pre 6.0 DFT Hessian and TD-DFT gradient, (ASA, deprecated), ECA, 1-Electron XAS/XES, NRVS 
  Peter Pinski           : DLPNO-MP2, DLPNO-MP2 Gradient                 
  Christoph Reimann      : Effective Core Potentials                     
  Marius Retegan         : Local ZFS, SOC                                
  Christoph Riplinger    : Optimizer, TS searches, QM/MM, DLPNO-CCSD(T), (RO)-DLPNO pert. Triples 
  Michael Roemelt        : Original ROCIS implementation                 
  Masaaki Saitow         : Open-shell DLPNO-CCSD energy and density      
  Barbara Sandhoefer     : DKH picture change effects                    
  Kantharuban Sivalingam : CASSCF convergence/infrastructure, NEVPT2 and variants, FIC-MRCI 
  Bernardo de Souza      : ESD, SOC TD-DFT                               
  Georgi L. Stoychev     : AutoAux, RI-MP2 NMR, DLPNO-MP2 response, X2C  
  Van Anh Tran           : RI-MP2 g-tensors                              
  Willem Van den Heuvel  : Paramagnetic NMR                              
  Zikuan Wang            : NOTCH, Electric field optimization            
  Frank Wennmohs         : Technical directorship and infrastructure     
  Hang Xu                : AUTO-CI-Response properties                   
                                                                         
[FACCTs GmbH]                                                            
  Markus Bursch, Miquel Garcia-Rates, Christoph Riplinger, Bernardo de Souza, Georgi L. Stoychev 
                                                                 
  APM, Basis sets (HGBS, AHGBS, def-TZVP (Ac-Lr), def2-XVPD (La-Lu)), CI-OPT, improved COSX, DLPNO-Multilevel,           
  DOCKER, DRACO, updates on ESD, GOAT, IRC, LR-CPCM, MBIS, meta-GGA TD-DFT gradient, ML-optimized integration grids, 
  MM, NACMEs, nearIR, NEB, NEB-TS, NL-DFT gradient (VV10), 2- and 3-layer-ONIOM, interface openCOSMO-RS, QMMM,   
  Crystal-QMMM, SF, symmetry and pop. for TD-DFT, r2SCAN hybrids, SOLVATOR                                   
                                                                         
[Other institutions]                                                     
  V. Asgeirsson          : NEB                                           
  Christoph Bannwarth    : sTDA-DFT, sTD-DFT, PBEh-3c, B97-3c, D3        
  Sebastian Ehlert       : rSCAN, r2SCAN, r2SCAN-3c, D4, dhf basis sets  
  Marvin Friede          : D4 for Fr, Ra, Ac-Lr                          
  Lars Goerigk           : TD-DFT with DH, B97 family of functionals     
  Stefan Grimme          : VdW corrections, initial TS optimization, DFT functionals, gCP, sTDA/sTD-DF 
  Waldemar Hujo          : DFT-NL                                        
  H. Jonsson             : NEB                                           
  Holger Kruse           : gCP                                           
  Marcel Mueller         : wB97X-3c, vDZP basis set                      
  Hagen Neugebauer       : wr2SCAN                                       
  Tobias Risthaus        : range-separated hybrid DFT                    
  Lukas Wittmann         : regularized MP2, r2SCAN double-hybrids, wr2SCAN        
                                                                         
We gratefully acknowledge several colleagues who have allowed us to      
interface, adapt or use parts of their codes:                            
  Ed Valeev, F. Pavosevic, A. Kumar             : LibInt (2-el integral package), F12 methods 
  Garnet Chan, S. Sharma, J. Yang, R. Olivares  : DMRG                   
  Ulf Ekstrom                                   : XCFun DFT Library      
  Mihaly Kallay                                 : mrcc  (arbitrary order and MRCC methods)
  Frank Weinhold                                : gennbo (NPA and NBO analysis)           
  Simon Mueller                                 : openCOSMO-RS                            
  Christopher J. Cramer and Donald G. Truhlar   : smd solvation model                     
  S Lehtola, MJT Oliveira, MAL Marques          : LibXC Library                           
  Liviu Ungur et al                             : ANISO software                          


 Your calculation uses the libint2 library for the computation of 2-el integrals
 For citations please refer to: http://libint.valeyev.net

 Your ORCA version has been built with support for libXC version: 6.2.2
 For citations please refer to: https://libxc.gitlab.io

 This ORCA versions uses:
   CBLAS   interface :  Fast vector & matrix operations
   LAPACKE interface :  Fast linear algebra routines
   SCALAPACK package :  Parallel linear algebra routines
   Shared memory     :  Shared parallel matrices
   BLAS/LAPACK       :  OpenBLAS 0.3.27  USE64BITINT DYNAMIC_ARCH NO_AFFINITY Zen SINGLE_THREADED
        Core in use  :  Zen
   Copyright (c) 2011-2014, The OpenBLAS Project


XCFun DFT library Copyright 2009-2010 Ulf Ekstrom and contributors.
See http://admol.org/xcfun for more information.
This is free software; see the source code for copying conditions.
There is ABSOLUTELY NO WARRANTY; not even for MERCHANTABILITY or FITNESS FOR A PARTICULAR PURPOSE.
For details see the documentation.
Scientific users of this library should cite U. Ekstrom, L. Visscher, R. Bast, A. J. Thorvaldsen and K. Ruud;
J.Chem.Theor.Comp. 2010, DOI: 10.1021/ct100117s
XCFun Version 0.99 

================================================================================

----- Orbital basis set information -----
Your calculation utilizes the basis: def2-TZVP(-f)
   F. Weigend and R. Ahlrichs, Phys. Chem. Chem. Phys. 7, 3297 (2005).

----- AuxJ basis set information -----
Your calculation utilizes the auxiliary basis: def2/J
   F. Weigend, Phys. Chem. Chem. Phys. 8, 1057 (2006).

----- AuxC basis set information -----
Your calculation utilizes the auxiliary basis: def2-TZVP/C
  H-La, Hf-Rn : A. Hellweg, C. Hattig, S. Hofener and W. Klopper, Theor. Chem. Acc. 117, 587 (2007).
        Ce-Lu : J. Chmela and M. E. Harding, Mol. Phys. (2018).

================================================================================
                                        WARNINGS
                       Please study these warnings very carefully!
================================================================================

INFO   : Checking CIS options ...

WARNING: (CIS/TDDFT): Analytic excited state gradients requested
  ===> : turning on equilibrium dielectric conditions.

WARNING: Analytical Frequencies for this method not available!
  ===> : Switching to Numerical Frequencies!

WARNING: The environment variable RSH_COMMAND is not set!
  ===> : All Displacements for the Numerical Hessian or Gradient calculation
         will be started on localhost

WARNING: Geometry Optimization
  ===> : Switching off AutoStart
         For restart on a previous wavefunction, please use MOREAD

WARNING: CIS/ROCIS methods need fully converged wavefunctions
  ===> : Setting SCFConvForced true
         You can overwrite this default with %scf ConvForced false 


================================================================================
                                       INPUT FILE
================================================================================
NAME = hbq-es.inp
|  1> ! cam-b3lyp VERYTIGHTOPT FREQ Def2-TZVP(-f) Def2-TZVP/C Def2/J RIJCOSX TightSCF CPCM(Water) AllPop SOSCF
|  2> %pal nprocs 128 end
|  3> %tddft
|  4>     NRoots 3
|  5>     IRoot 1
|  6> end 
|  7> 
|  8> * xyz 0 1 
|  9>   C          -3.30275837276070     -1.10225919064019     -0.23608248624623
| 10>   C          -2.75697942322917     -2.04374852739824     -1.10719403080731
| 11>   C          -1.42508272944947     -1.91962543669772     -1.47444427652290
| 12>   C          -2.52150503353398     -0.05964379286878      0.28108927359715
| 13>   C          -1.12123240807932      0.04171112284140      0.02686830475695
| 14>   O          -3.22276751799606      0.81107803458248      1.06151039908223
| 15>   C          -0.59793883077458     -0.89844631185998     -0.94116887419510
| 16>   C           0.74408142117640     -0.81671378642399     -1.32526697154036
| 17>   C           1.58569732239444      0.14349987838371     -0.76929361404608
| 18>   C          -0.22614377797250      0.94076444055219      0.69413862067265
| 19>   C           1.14535790512010      1.01239268993266      0.24559284351604
| 20>   N          -0.66888255615188      1.69836027300136      1.73249098040614
| 21>   C           0.18329183973440      2.59557226937155      2.27223382322247
| 22>   C           1.49460964412188      2.78398176784945      1.85607801796243
| 23>   C           2.00307334930733      1.96730191206452      0.84337465097592
| 24>   C          -3.21672298959110      2.17231943728836      0.77004592254346
| 25>   O          -2.85183011349962      2.59019108024525     -0.31215659673643
| 26>   N          -3.76810070787185      2.88547920366514      1.76490979860237
| 27>   C          -4.05328950589666      2.35793096737573      3.09476119500566
| 28>   C          -3.87627926546117      4.33184382140048      1.61501364345263
| 29>   H          -3.09963823873655      4.83812399596787      2.19463174773639
| 30>   H          -4.85116726660033      4.65552623805094      1.98069813601506
| 31>   H          -3.77455222274413      4.60067013336094      0.56901611991011
| 32>   H          -3.26030553114815      2.63486183131575      3.79479041092679
| 33>   H          -4.14343497886490      1.27838941329047      3.06996839283761
| 34>   H          -4.99262097744380      2.78608009885565      3.44530251047586
| 35>   H          -0.98567851407382     -2.61939524384490     -2.17424688549707
| 36>   H          -4.35240871129897     -1.12136057383066      0.02411828284690
| 37>   H          -3.37234542682238     -2.83308520151086     -1.51520127301814
| 38>   H           1.12566236090930     -1.51222554514660     -2.06163206112933
| 39>   H           2.61231992951100      0.21648456506591     -1.10770590629945
| 40>   H          -0.20913667642843      3.17684078519461      3.10040516058897
| 41>   H           2.11280610412088      3.52570926327954      2.34465723658199
| 42>   H           3.03206190735826      2.03922038914426      0.51707749864162
| 43> *
| 44> 
| 45>                          ****END OF INPUT****
================================================================================

                       *****************************
                       * Geometry Optimization Run *
                       *****************************

Geometry optimization settings:
Update method            Update   .... BFGS
Choice of coordinates    CoordSys .... (2022) Redundant Internals
Initial Hessian          InHess   .... Almloef's Model
Max. no of cycles        MaxIter  .... 102

Convergence Tolerances:
Energy Change            TolE     ....  2.0000e-07 Eh
Max. Gradient            TolMAXG  ....  3.0000e-05 Eh/bohr
RMS Gradient             TolRMSG  ....  8.0000e-06 Eh/bohr
Max. Displacement        TolMAXD  ....  2.0000e-04 bohr
RMS Displacement         TolRMSD  ....  1.0000e-04 bohr
Strict Convergence                .... False

------------------------------------------------------------------------------
                        ORCA OPTIMIZATION COORDINATE SETUP
------------------------------------------------------------------------------

The optimization will be done in redundant internal coordinates (2022)
Making redundant internal coordinates   ...  (2022 redundants) done
Evaluating the initial hessian          ...  (Almloef) done
Evaluating the coordinates              ...  done
Calculating the B-matrix                .... done
Calculating the G-matrix                .... done
Diagonalizing the G-matrix              .... done
Small eigenvalue found = 2.925e-03
Small eigenvalue found = 6.888e-03
Small eigenvalue found = 1.278e-02
Small eigenvalue found = 2.463e-02
The first mode is                       ....   77
The number of degrees of freedom        ....   96

    -----------------------------------------------------------------
                    Redundant Internal Coordinates


    -----------------------------------------------------------------
         Definition                    Initial Value    Approx d2E/dq
    -----------------------------------------------------------------
      1. B(C   1,C   0)                  1.3940         0.615783   
      2. B(C   2,C   1)                  1.3872         0.631336   
      3. B(C   3,C   0)                  1.4017         0.598427   
      4. B(C   4,C   3)                  1.4268         0.545857   
      5. B(O   5,C   3)                  1.3634         0.616939   
      6. B(C   6,C   4)                  1.4474         0.506101   
      7. B(C   6,C   2)                  1.4182         0.563262   
      8. B(C   7,C   6)                  1.3983         0.606044   
      9. B(C   8,C   7)                  1.3926         0.618776   
     10. B(C   9,C   4)                  1.4334         0.532652   
     11. B(C  10,C   9)                  1.4448         0.510937   
     12. B(C  10,C   8)                  1.4067         0.587569   
     13. B(N  11,C   9)                  1.3595         0.626026   
     14. B(C  12,N  11)                  1.3500         0.648165   
     15. B(C  13,C  12)                  1.3886         0.627995   
     16. B(C  14,C  13)                  1.3968         0.609367   
     17. B(C  14,C  10)                  1.4159         0.568018   
     18. B(C  15,O   5)                  1.3921         0.555279   
     19. B(O  16,C  15)                  1.2161         1.059996   
     20. B(N  17,C  15)                  1.3425         0.666226   
     21. B(C  18,N  17)                  1.4588         0.434594   
     22. B(C  19,N  17)                  1.4581         0.435691   
     23. B(H  20,C  19)                  1.0934         0.355675   
     24. B(H  21,C  19)                  1.0904         0.359614   
     25. B(H  22,C  19)                  1.0848         0.367085   
     26. B(H  23,C  18)                  1.0934         0.355611   
     27. B(H  24,C  18)                  1.0836         0.368691   
     28. B(H  25,C  18)                  1.0902         0.359836   
     29. B(H  26,C   2)                  1.0828         0.369738   
     30. B(H  27,C   0)                  1.0816         0.371400   
     31. B(H  28,C   1)                  1.0808         0.372435   
     32. B(H  29,C   7)                  1.0824         0.370305   
     33. B(H  30,C   8)                  1.0834         0.368908   
     34. B(H  31,C  12)                  1.0852         0.366455   
     35. B(H  32,C  13)                  1.0821         0.370644   
     36. B(H  33,C  14)                  1.0819         0.371007   
     37. A(C   1,C   0,C   3)          120.9784         0.430783   
     38. A(C   3,C   0,H  27)          117.7273         0.352639   
     39. A(C   1,C   0,H  27)          121.2237         0.354351   
     40. A(C   2,C   1,H  28)          120.8016         0.356021   
     41. A(C   0,C   1,C   2)          118.7471         0.434949   
     42. A(C   0,C   1,H  28)          120.4137         0.354518   
     43. A(C   1,C   2,H  26)          120.1926         0.355582   
     44. A(C   1,C   2,C   6)          121.6593         0.428039   
     45. A(C   6,C   2,H  26)          118.1427         0.348786   
     46. A(C   4,C   3,O   5)          124.1528         0.421130   
     47. A(C   0,C   3,C   4)          122.2826         0.421584   
     48. A(C   0,C   3,O   5)          113.5487         0.428114   
     49. A(C   3,C   4,C   9)          125.0614         0.412934   
     50. A(C   3,C   4,C   6)          115.3323         0.409206   
     51. A(C   6,C   4,C   9)          119.5374         0.407437   
     52. A(C   3,O   5,C  15)          120.1579         0.419675   
     53. A(C   4,C   6,C   7)          119.5218         0.416877   
     54. A(C   2,C   6,C   7)          119.9043         0.424916   
     55. A(C   2,C   6,C   4)          120.5536         0.411489   
     56. A(C   6,C   7,H  29)          119.1871         0.353218   
     57. A(C   6,C   7,C   8)          120.7072         0.432139   
     58. A(C   8,C   7,H  29)          120.1056         0.354465   
     59. A(C   7,C   8,H  30)          119.6301         0.354238   
     60. A(C  10,C   8,H  30)          118.7086         0.351149   
     61. A(C   7,C   8,C  10)          121.6502         0.429743   
     62. A(C   4,C   9,C  10)          118.6427         0.408123   
     63. A(C  10,C   9,N  11)          121.2423         0.417282   
     64. A(C   4,C   9,N  11)          120.1134         0.420389   
     65. A(C   9,C  10,C  14)          118.5161         0.412800   
     66. A(C   8,C  10,C  14)          122.1086         0.423205   
     67. A(C   8,C  10,C   9)          119.3744         0.415290   
     68. A(C   9,N  11,C  12)          118.0447         0.432592   
     69. A(N  11,C  12,H  31)          115.6462         0.354431   
     70. A(N  11,C  12,C  13)          124.5035         0.435689   
     71. A(C  13,C  12,H  31)          119.8352         0.354725   
     72. A(C  12,C  13,H  32)          119.8125         0.355410   
     73. A(C  12,C  13,C  14)          118.7970         0.433716   
     74. A(C  14,C  13,H  32)          121.3414         0.353600   
     75. A(C  10,C  14,H  33)          119.5805         0.349483   
     76. A(C  10,C  14,C  13)          118.6780         0.425972   
     77. A(C  13,C  14,H  33)          121.7371         0.353659   
     78. A(O  16,C  15,N  17)          126.8802         0.478503   
     79. A(O   5,C  15,N  17)          111.2536         0.425478   
     80. A(O   5,C  15,O  16)          121.5749         0.462771   
     81. A(C  18,N  17,C  19)          115.9712         0.378149   
     82. A(C  15,N  17,C  19)          118.7647         0.407505   
     83. A(C  15,N  17,C  18)          124.3134         0.407323   
     84. A(H  24,C  18,H  25)          109.0831         0.291886   
     85. A(H  23,C  18,H  25)          108.6358         0.290234   
     86. A(N  17,C  18,H  25)          108.6347         0.330473   
     87. A(H  23,C  18,H  24)          109.1056         0.291344   
     88. A(N  17,C  18,H  24)          110.8354         0.331805   
     89. A(N  17,C  18,H  23)          110.5030         0.329828   
     90. A(H  21,C  19,H  22)          109.4916         0.291657   
     91. A(H  20,C  19,H  22)          109.2573         0.291153   
     92. A(N  17,C  19,H  22)          109.7543         0.331704   
     93. A(H  20,C  19,H  21)          108.6534         0.290214   
     94. A(N  17,C  19,H  21)          109.0454         0.330577   
     95. A(N  17,C  19,H  20)          110.6168         0.329975   
     96. D(H  28,C   1,C   0,C   3)   -178.8420         0.026217   
     97. D(C   2,C   1,C   0,C   3)     -1.0534         0.026217   
     98. D(H  28,C   1,C   0,H  27)     -1.9644         0.026217   
     99. D(C   2,C   1,C   0,H  27)    175.8242         0.026217   
    100. D(C   6,C   2,C   1,C   0)      2.8048         0.027644   
    101. D(H  26,C   2,C   1,C   0)   -178.0546         0.027644   
    102. D(C   6,C   2,C   1,H  28)   -179.4154         0.027644   
    103. D(H  26,C   2,C   1,H  28)     -0.2749         0.027644   
    104. D(O   5,C   3,C   0,C   1)    176.8329         0.024681   
    105. D(C   4,C   3,C   0,H  27)    178.4542         0.024681   
    106. D(C   4,C   3,C   0,C   1)     -4.5621         0.024681   
    107. D(O   5,C   3,C   0,H  27)     -0.1508         0.024681   
    108. D(C   6,C   4,C   3,O   5)   -173.6737         0.020373   
    109. D(C   9,C   4,C   3,C   0)   -169.0785         0.020373   
    110. D(C   9,C   4,C   3,O   5)      9.3761         0.020373   
    111. D(C   6,C   4,C   3,C   0)      7.8717         0.020373   
    112. D(C  15,O   5,C   3,C   4)     56.6782         0.027905   
    113. D(C  15,O   5,C   3,C   0)   -124.7469         0.027905   
    114. D(C   7,C   6,C   4,C   9)     -7.2511         0.017452   
    115. D(C   7,C   6,C   4,C   3)    175.6180         0.017452   
    116. D(C   2,C   6,C   4,C   9)    171.1076         0.017452   
    117. D(C   2,C   6,C   4,C   3)     -6.0233         0.017452   
    118. D(C   7,C   6,C   2,H  26)      0.1010         0.021742   
    119. D(C   7,C   6,C   2,C   1)    179.2585         0.021742   
    120. D(C   4,C   6,C   2,H  26)   -178.2515         0.021742   
    121. D(C   4,C   6,C   2,C   1)      0.9061         0.021742   
    122. D(H  29,C   7,C   6,C   4)   -179.0074         0.025348   
    123. D(H  29,C   7,C   6,C   2)      2.6231         0.025348   
    124. D(C   8,C   7,C   6,C   4)      1.1229         0.025348   
    125. D(C   8,C   7,C   6,C   2)   -177.2466         0.025348   
    126. D(C  10,C   8,C   7,C   6)      3.6145         0.026488   
    127. D(H  30,C   8,C   7,H  29)      2.5150         0.026488   
    128. D(H  30,C   8,C   7,C   6)   -177.6166         0.026488   
    129. D(C  10,C   8,C   7,H  29)   -176.2539         0.026488   
    130. D(N  11,C   9,C   4,C   6)   -170.9537         0.019371   
    131. D(N  11,C   9,C   4,C   3)      5.8779         0.019371   
    132. D(C  10,C   9,C   4,C   6)      8.6019         0.019371   
    133. D(C  10,C   9,C   4,C   3)   -174.5665         0.019371   
    134. D(C  14,C  10,C   9,N  11)     -4.8025         0.017792   
    135. D(C  14,C  10,C   9,C   4)    175.6472         0.017792   
    136. D(C   8,C  10,C   9,N  11)    175.5275         0.017792   
    137. D(C   8,C  10,C   9,C   4)     -4.0229         0.017792   
    138. D(C  14,C  10,C   8,H  30)     -0.5560         0.023749   
    139. D(C  14,C  10,C   8,C   7)    178.2239         0.023749   
    140. D(C   9,C  10,C   8,H  30)    179.1017         0.023749   
    141. D(C   9,C  10,C   8,C   7)     -2.1184         0.023749   
    142. D(C  12,N  11,C   9,C  10)      4.8351         0.028794   
    143. D(C  12,N  11,C   9,C   4)   -175.6211         0.028794   
    144. D(H  31,C  12,N  11,C   9)   -179.8093         0.031034   
    145. D(C  13,C  12,N  11,C   9)     -1.2280         0.031034   
    146. D(H  32,C  13,C  12,H  31)     -1.3934         0.027333   
    147. D(H  32,C  13,C  12,N  11)   -179.9190         0.027333   
    148. D(C  14,C  13,C  12,H  31)    176.0910         0.027333   
    149. D(C  14,C  13,C  12,N  11)     -2.4346         0.027333   
    150. D(H  33,C  14,C  13,H  32)      0.5623         0.025642   
    151. D(H  33,C  14,C  13,C  12)   -176.8821         0.025642   
    152. D(C  10,C  14,C  13,H  32)    179.7942         0.025642   
    153. D(C  10,C  14,C  13,C  12)      2.3498         0.025642   
    154. D(H  33,C  14,C  10,C   9)   -179.6908         0.022126   
    155. D(H  33,C  14,C  10,C   8)     -0.0303         0.022126   
    156. D(C  13,C  14,C  10,C   9)      1.0604         0.022126   
    157. D(C  13,C  14,C  10,C   8)   -179.2791         0.022126   
    158. D(O  16,C  15,O   5,C   3)     16.2241         0.022321   
    159. D(N  17,C  15,O   5,C   3)   -169.5729         0.022321   
    160. D(C  19,N  17,C  15,O  16)     -4.6727         0.036383   
    161. D(C  19,N  17,C  15,O   5)   -178.4970         0.036383   
    162. D(C  18,N  17,C  15,O  16)   -173.0458         0.036383   
    163. D(C  18,N  17,C  15,O   5)     13.1299         0.036383   
    164. D(H  25,C  18,N  17,C  15)   -142.4643         0.016103   
    165. D(H  24,C  18,N  17,C  19)    168.7038         0.016103   
    166. D(H  24,C  18,N  17,C  15)    -22.6295         0.016103   
    167. D(H  23,C  18,N  17,C  19)    -70.2179         0.016103   
    168. D(H  23,C  18,N  17,C  15)     98.4488         0.016103   
    169. D(H  22,C  19,N  17,C  15)     18.1272         0.016185   
    170. D(H  21,C  19,N  17,C  18)    -52.6071         0.016185   
    171. D(H  21,C  19,N  17,C  15)    138.0635         0.016185   
    172. D(H  20,C  19,N  17,C  18)     66.8249         0.016185   
    173. D(H  20,C  19,N  17,C  15)   -102.5045         0.016185   
    -----------------------------------------------------------------

Number of atoms                         .... 34
Number of degrees of freedom            .... 173


         *************************************************************
         *                GEOMETRY OPTIMIZATION CYCLE   1            *
         *************************************************************
---------------------------------
CARTESIAN COORDINATES (ANGSTROEM)
---------------------------------
  C     -3.302758   -1.102259   -0.236082
  C     -2.756979   -2.043749   -1.107194
  C     -1.425083   -1.919625   -1.474444
  C     -2.521505   -0.059644    0.281089
  C     -1.121232    0.041711    0.026868
  O     -3.222768    0.811078    1.061510
  C     -0.597939   -0.898446   -0.941169
  C      0.744081   -0.816714   -1.325267
  C      1.585697    0.143500   -0.769294
  C     -0.226144    0.940764    0.694139
  C      1.145358    1.012393    0.245593
  N     -0.668883    1.698360    1.732491
  C      0.183292    2.595572    2.272234
  C      1.494610    2.783982    1.856078
  C      2.003073    1.967302    0.843375
  C     -3.216723    2.172319    0.770046
  O     -2.851830    2.590191   -0.312157
  N     -3.768101    2.885479    1.764910
  C     -4.053290    2.357931    3.094761
  C     -3.876279    4.331844    1.615014
  H     -3.099638    4.838124    2.194632
  H     -4.851167    4.655526    1.980698
  H     -3.774552    4.600670    0.569016
  H     -3.260306    2.634862    3.794790
  H     -4.143435    1.278389    3.069968
  H     -4.992621    2.786080    3.445303
  H     -0.985679   -2.619395   -2.174247
  H     -4.352409   -1.121361    0.024118
  H     -3.372345   -2.833085   -1.515201
  H      1.125662   -1.512226   -2.061632
  H      2.612320    0.216485   -1.107706
  H     -0.209137    3.176841    3.100405
  H      2.112806    3.525709    2.344657
  H      3.032062    2.039220    0.517077

----------------------------
CARTESIAN COORDINATES (A.U.)
----------------------------
  NO LB      ZA    FRAG     MASS         X           Y           Z
   0 C     6.0000    0    12.011   -6.241309   -2.082968   -0.446131
   1 C     6.0000    0    12.011   -5.209936   -3.862125   -2.092293
   2 C     6.0000    0    12.011   -2.693016   -3.627566   -2.786296
   3 C     6.0000    0    12.011   -4.764954   -0.112710    0.531182
   4 C     6.0000    0    12.011   -2.118822    0.078823    0.050774
   5 O     8.0000    0    15.999   -6.090148    1.532715    2.005964
   6 C     6.0000    0    12.011   -1.129941   -1.697817   -1.778551
   7 C     6.0000    0    12.011    1.406110   -1.543365   -2.504392
   8 C     6.0000    0    12.011    2.996534    0.271175   -1.453754
   9 C     6.0000    0    12.011   -0.427350    1.777787    1.311732
  10 C     6.0000    0    12.011    2.164413    1.913145    0.464103
  11 N     7.0000    0    14.007   -1.264005    3.209436    3.273933
  12 C     6.0000    0    12.011    0.346371    4.904921    4.293900
  13 C     6.0000    0    12.011    2.824403    5.260963    3.507479
  14 C     6.0000    0    12.011    3.785260    3.717662    1.593747
  15 C     6.0000    0    12.011   -6.078725    4.105089    1.455176
  16 O     8.0000    0    15.999   -5.389178    4.894752   -0.589890
  17 N     7.0000    0    14.007   -7.120678    5.452765    3.335196
  18 C     6.0000    0    12.011   -7.659607    4.455844    5.848251
  19 C     6.0000    0    12.011   -7.325106    8.185998    3.051933
  20 H     1.0000    0     1.008   -5.857467    9.142729    4.147253
  21 H     1.0000    0     1.008   -9.167378    8.797670    3.742977
  22 H     1.0000    0     1.008   -7.132870    8.694007    1.075285
  23 H     1.0000    0     1.008   -6.161085    4.979167    7.171115
  24 H     1.0000    0     1.008   -7.829957    2.415806    5.801400
  25 H     1.0000    0     1.008   -9.434686    5.264928    6.510678
  26 H     1.0000    0     1.008   -1.862662   -4.949940   -4.108731
  27 H     1.0000    0     1.008   -8.224860   -2.119064    0.045577
  28 H     1.0000    0     1.008   -6.372809   -5.353755   -2.863315
  29 H     1.0000    0     1.008    2.127194   -2.857692   -3.895920
  30 H     1.0000    0     1.008    4.936569    0.409097   -2.093261
  31 H     1.0000    0     1.008   -0.395211    6.003359    5.858917
  32 H     1.0000    0     1.008    3.992625    6.662625    4.430760
  33 H     1.0000    0     1.008    5.729767    3.853568    0.977135

--------------------------------
INTERNAL COORDINATES (ANGSTROEM)
--------------------------------
 C      0   0   0     0.000000000000     0.00000000     0.00000000
 C      1   0   0     1.393955578937     0.00000000     0.00000000
 C      2   1   0     1.387165486712   118.74709407     0.00000000
 C      1   2   3     1.401738305427   120.97843933   358.94659180
 C      4   1   2     1.426767165845   122.28257163   355.43787470
 O      4   1   2     1.363445160620   113.54870270   176.83286088
 C      3   2   1     1.418223003920   121.65930767     2.80481089
 C      7   3   2     1.398295358908   119.90429869   179.25851161
 C      8   7   3     1.392635624099   120.70717269   182.75341805
 C      5   4   1     1.433433011457   125.06135052   190.92145152
 C      9   8   7     1.406722446721   121.65016083     3.61450774
 N     10   5   4     1.359464855747   120.11343954     5.87790518
 C     12  10   5     1.350004779179   118.04466610   184.37893248
 C     13  12  10     1.388610160366   124.50353361   358.77196359
 C     14  13  12     1.396806871347   118.79698267   357.56539229
 C      6   4   1     1.392108556776   120.15791780   235.25308293
 O     16   6   4     1.216110938091   121.57485154    16.22406342
 N     16   6   4     1.342523136665   111.25355584   190.42712896
 C     18  16   6     1.458816139425   124.31342507    13.12992444
 C     18  16   6     1.458129646186   118.76467353   181.50296532
 H     20  18  16     1.093365467886   110.61678682   257.49549711
 H     20  18  16     1.090367859814   109.04536221   138.06352908
 H     20  18  16     1.084770388829   109.75431821    18.12718967
 H     19  18  16     1.093414464306   110.50298237    98.44882826
 H     19  18  16     1.083582417877   110.83542444   337.37053869
 H     19  18  16     1.090199296495   108.63468368   217.53573710
 H      3   2   1     1.082810019815   120.19257205   181.94535506
 H      1   2   3     1.081589171668   121.22374914   175.82422247
 H      2   1   3     1.080831907918   120.41373864   182.21136415
 H      8   7   3     1.082392796195   119.18707295     2.62305659
 H      9   8   7     1.083422180630   119.63009613   182.38342076
 H     13  12  10     1.085237758199   115.64617388   180.19070736
 H     14  13  12     1.082144257250   119.81249515   180.08102309
 H     15  14  13     1.081877789571   121.73708020   183.11791305

---------------------------
INTERNAL COORDINATES (A.U.)
---------------------------
 C      0   0   0     0.000000000000     0.00000000     0.00000000
 C      1   0   0     2.634194287042     0.00000000     0.00000000
 C      2   1   0     2.621362872313   118.74709407     0.00000000
 C      1   2   3     2.648901508685   120.97843933   358.94659180
 C      4   1   2     2.696199200319   122.28257163   355.43787470
 O      4   1   2     2.576537952192   113.54870270   176.83286088
 C      3   2   1     2.680053074236   121.65930767     2.80481089
 C      7   3   2     2.642395282670   119.90429869   179.25851161
 C      8   7   3     2.631699933890   120.70717269   182.75341805
 C      5   4   1     2.708795822976   125.06135052   190.92145152
 C      9   8   7     2.658320170743   121.65016083     3.61450774
 N     10   5   4     2.569016266053   120.11343954     5.87790518
 C     12  10   5     2.551139312133   118.04466610   184.37893248
 C     13  12  10     2.624092909872   124.50353361   358.77196359
 C     14  13  12     2.639582448825   118.79698267   357.56539229
 C      6   4   1     2.630703920995   120.15791780   235.25308293
 O     16   6   4     2.298116621459   121.57485154    16.22406342
 N     16   6   4     2.537001056751   111.25355584   190.42712896
 C     18  16   6     2.756762983257   124.31342507    13.12992444
 C     18  16   6     2.755465699044   118.76467353   181.50296532
 H     20  18  16     2.066161298591   110.61678682   257.49549711
 H     20  18  16     2.060496640277   109.04536221   138.06352908
 H     20  18  16     2.049918953073   109.75431821    18.12718967
 H     19  18  16     2.066253888407   110.50298237    98.44882826
 H     19  18  16     2.047674013320   110.83542444   337.37053869
 H     19  18  16     2.060178101769   108.63468368   217.53573710
 H      3   2   1     2.046214392516   120.19257205   181.94535506
 H      1   2   3     2.043907323868   121.22374914   175.82422247
 H      2   1   3     2.042476302769   120.41373864   182.21136415
 H      8   7   3     2.045425954137   119.18707295     2.62305659
 H      9   8   7     2.047371208806   119.63009613   182.38342076
 H     13  12  10     2.050802153186   115.64617388   180.19070736
 H     14  13  12     2.044956283598   119.81249515   180.08102309
 H     15  14  13     2.044452732661   121.73708020   183.11791305

---------------------
BASIS SET INFORMATION
---------------------
There are 4 groups of distinct atoms

 Group   1 Type C   : 11s6p2d contracted to 5s3p2d pattern {62111/411/11}
 Group   2 Type O   : 11s6p2d contracted to 5s3p2d pattern {62111/411/11}
 Group   3 Type N   : 11s6p2d contracted to 5s3p2d pattern {62111/411/11}
 Group   4 Type H   : 5s1p contracted to 3s1p pattern {311/1}

Atom   0C    basis set group =>   1
Atom   1C    basis set group =>   1
Atom   2C    basis set group =>   1
Atom   3C    basis set group =>   1
Atom   4C    basis set group =>   1
Atom   5O    basis set group =>   2
Atom   6C    basis set group =>   1
Atom   7C    basis set group =>   1
Atom   8C    basis set group =>   1
Atom   9C    basis set group =>   1
Atom  10C    basis set group =>   1
Atom  11N    basis set group =>   3
Atom  12C    basis set group =>   1
Atom  13C    basis set group =>   1
Atom  14C    basis set group =>   1
Atom  15C    basis set group =>   1
Atom  16O    basis set group =>   2
Atom  17N    basis set group =>   3
Atom  18C    basis set group =>   1
Atom  19C    basis set group =>   1
Atom  20H    basis set group =>   4
Atom  21H    basis set group =>   4
Atom  22H    basis set group =>   4
Atom  23H    basis set group =>   4
Atom  24H    basis set group =>   4
Atom  25H    basis set group =>   4
Atom  26H    basis set group =>   4
Atom  27H    basis set group =>   4
Atom  28H    basis set group =>   4
Atom  29H    basis set group =>   4
Atom  30H    basis set group =>   4
Atom  31H    basis set group =>   4
Atom  32H    basis set group =>   4
Atom  33H    basis set group =>   4
---------------------------------
AUXILIARY/J BASIS SET INFORMATION
---------------------------------
There are 4 groups of distinct atoms

 Group   1 Type C   : 12s5p4d2f1g contracted to 6s4p3d1f1g pattern {711111/2111/211/2/1}
 Group   2 Type O   : 12s5p4d2f1g contracted to 6s4p3d1f1g pattern {711111/2111/211/2/1}
 Group   3 Type N   : 12s5p4d2f1g contracted to 6s4p3d1f1g pattern {711111/2111/211/2/1}
 Group   4 Type H   : 5s2p1d contracted to 3s1p1d pattern {311/2/1}

Atom   0C    basis set group =>   1
Atom   1C    basis set group =>   1
Atom   2C    basis set group =>   1
Atom   3C    basis set group =>   1
Atom   4C    basis set group =>   1
Atom   5O    basis set group =>   2
Atom   6C    basis set group =>   1
Atom   7C    basis set group =>   1
Atom   8C    basis set group =>   1
Atom   9C    basis set group =>   1
Atom  10C    basis set group =>   1
Atom  11N    basis set group =>   3
Atom  12C    basis set group =>   1
Atom  13C    basis set group =>   1
Atom  14C    basis set group =>   1
Atom  15C    basis set group =>   1
Atom  16O    basis set group =>   2
Atom  17N    basis set group =>   3
Atom  18C    basis set group =>   1
Atom  19C    basis set group =>   1
Atom  20H    basis set group =>   4
Atom  21H    basis set group =>   4
Atom  22H    basis set group =>   4
Atom  23H    basis set group =>   4
Atom  24H    basis set group =>   4
Atom  25H    basis set group =>   4
Atom  26H    basis set group =>   4
Atom  27H    basis set group =>   4
Atom  28H    basis set group =>   4
Atom  29H    basis set group =>   4
Atom  30H    basis set group =>   4
Atom  31H    basis set group =>   4
Atom  32H    basis set group =>   4
Atom  33H    basis set group =>   4
---------------------------------
AUXILIARY/C BASIS SET INFORMATION
---------------------------------
There are 4 groups of distinct atoms

 Group   1 Type C   : 8s6p5d3f1g contracted to 8s6p4d3f1g pattern {11111111/111111/2111/111/1}
 Group   2 Type O   : 8s6p5d3f1g contracted to 8s6p4d3f1g pattern {11111111/111111/2111/111/1}
 Group   3 Type N   : 8s6p5d3f1g contracted to 8s6p4d3f1g pattern {11111111/111111/2111/111/1}
 Group   4 Type H   : 4s3p2d contracted to 4s2p1d pattern {1111/21/2}

Atom   0C    basis set group =>   1
Atom   1C    basis set group =>   1
Atom   2C    basis set group =>   1
Atom   3C    basis set group =>   1
Atom   4C    basis set group =>   1
Atom   5O    basis set group =>   2
Atom   6C    basis set group =>   1
Atom   7C    basis set group =>   1
Atom   8C    basis set group =>   1
Atom   9C    basis set group =>   1
Atom  10C    basis set group =>   1
Atom  11N    basis set group =>   3
Atom  12C    basis set group =>   1
Atom  13C    basis set group =>   1
Atom  14C    basis set group =>   1
Atom  15C    basis set group =>   1
Atom  16O    basis set group =>   2
Atom  17N    basis set group =>   3
Atom  18C    basis set group =>   1
Atom  19C    basis set group =>   1
Atom  20H    basis set group =>   4
Atom  21H    basis set group =>   4
Atom  22H    basis set group =>   4
Atom  23H    basis set group =>   4
Atom  24H    basis set group =>   4
Atom  25H    basis set group =>   4
Atom  26H    basis set group =>   4
Atom  27H    basis set group =>   4
Atom  28H    basis set group =>   4
Atom  29H    basis set group =>   4
Atom  30H    basis set group =>   4
Atom  31H    basis set group =>   4
Atom  32H    basis set group =>   4
Atom  33H    basis set group =>   4


           ************************************************************
           *        Program running with 128 parallel MPI-processes   *
           *              working on a common directory               *
           ************************************************************
------------------------------------------------------------------------------
                             ORCA STARTUP CALCULATIONS
                           -- RI-GTO INTEGRALS CHOSEN --
------------------------------------------------------------------------------
------------------------------------------------------------------------------
                   ___                                                        
                  /   \      - P O W E R E D   B Y -                         
                 /     \                                                     
                 |  |  |   _    _      __       _____    __    __             
                 |  |  |  | |  | |    /  \     |  _  \  |  |  /  |          
                  \  \/   | |  | |   /    \    | | | |  |  | /  /          
                 / \  \   | |__| |  /  /\  \   | |_| |  |  |/  /          
                |  |  |   |  __  | /  /__\  \  |    /   |      \           
                |  |  |   | |  | | |   __   |  |    \   |  |\   \          
                \     /   | |  | | |  |  |  |  | |\  \  |  | \   \       
                 \___/    |_|  |_| |__|  |__|  |_| \__\ |__|  \__/        
                                                                              
                      - O R C A' S   B I G   F R I E N D -                    
                                      &                                       
                       - I N T E G R A L  F E E D E R -                       
                                                                              
 v1 FN, 2020, v2 2021, v3 2022-2024                                           
------------------------------------------------------------------------------


----------------------
SHARK INTEGRAL PACKAGE
----------------------

Number of atoms                             ...     34
Number of basis functions                   ...    564
Number of shells                            ...    256
Maximum angular momentum                    ...      2
Integral batch strategy                     ... SHARK/LIBINT Hybrid
RI-J (if used) integral strategy            ... SPLIT-RIJ (Revised 2003 algorithm where possible)
Printlevel                                  ...      1
Contraction scheme used                     ... SEGMENTED contraction
Prescreening option                         ... SCHWARTZ
   Thresh                                   ... 2.500e-11
   Tcut                                     ... 2.500e-12
   Tpresel                                  ... 2.500e-12 
Coulomb Range Separation                    ... NOT USED
Exchange Range Separation                   ... Long Range
   Mu parameter                             ... 3.300e-01
   Scaling (regular/separated)              ... 1.900e-01 4.600e-01
Multipole approximations                    ... NOT USED
Finite Nucleus Model                        ... NOT USED
CABS basis                                  ... NOT available
Auxiliary Coulomb fitting basis             ... AVAILABLE
   # of basis functions in Aux-J            ...   1134
   # of shells in Aux-J                     ...    370
   Maximum angular momentum in Aux-J        ...      4
Auxiliary J/K fitting basis                 ... NOT available
Auxiliary Correlation fitting basis         ... AVAILABLE
   # of basis functions in Aux-C            ...   1730
   # of shells in Aux-C                     ...    538
   Maximum angular momentum in Aux-C        ...      4
Auxiliary 'external' fitting basis          ... NOT available

Checking pre-screening integrals            ... done (  1.0 sec) Dimension = 256
Check shell pair data                       ... done (  0.5 sec)
Shell pair information
Shell pair cut-off parameter TPreSel        ...   2.5e-12
Total number of shell pairs                 ...     32896
Shell pairs after pre-screening             ...     25288
Total number of primitive shell pairs       ...    108362
Primitive shell pairs kept                  ...     55277
          la=0 lb=0:   7355 shell pairs
          la=1 lb=0:   8265 shell pairs
          la=1 lb=1:   2328 shell pairs
          la=2 lb=0:   4261 shell pairs
          la=2 lb=1:   2417 shell pairs
          la=2 lb=2:    662 shell pairs

Calculating one electron integrals          ... done (  0.1 sec)
Calculating RI/J V-Matrix + Cholesky decomp.... done (  3.9 sec)
Calculating RI/C V-Matrix + Cholesky decomp.... done (  4.9 sec)
Calculating Nuclear repulsion               ... done (  0.0 sec) ENN=   1520.546979357410 Eh

Diagonalization of the overlap matrix:
Smallest eigenvalue                        ... 4.917e-06
Time for diagonalization                   ...    0.165 sec
Threshold for overlap eigenvalues          ... 1.000e-07
Number of eigenvalues below threshold      ... 0
Time for construction of square roots      ...    0.348 sec
Total time needed                          ...    2.781 sec

-------------------
DFT GRID GENERATION
-------------------

General Integration Accuracy     IntAcc      ... 4.388
Radial Grid Type                 RadialGrid  ... OptM3 with GC (2021)
Angular Grid (max. ang.)         AngularGrid ... 4 (Lebedev-302)
Angular grid pruning method      GridPruning ... 4 (adaptive)
Weight generation scheme         WeightScheme... mBecke (2022)
Basis function cutoff            BFCut       ... 1.0000e-11
Integration weight cutoff        WCut        ... 1.0000e-14
Partially contracted basis set               ... off
Rotationally invariant grid construction     ... off
Angular grids for H and He will be reduced by one unit

Total number of grid points                  ...   164368
Total number of batches                      ...     2585
Average number of points per batch           ...       63
Average number of grid points per atom       ...     4834

--------------------
COSX GRID GENERATION
--------------------

GRIDX 1
-------
General Integration Accuracy     IntAcc      ... 3.816
Radial Grid Type                 RadialGrid  ... OptM3 with GC (2021)
Angular Grid (max. ang.)         AngularGrid ... 1 (Lebedev-50)
Angular grid pruning method      GridPruning ... 4 (adaptive)
Weight generation scheme         WeightScheme... mBecke (2022)
Basis function cutoff            BFCut       ... 1.0000e-11
Integration weight cutoff        WCut        ... 1.0000e-14
Partially contracted basis set               ... on
Rotationally invariant grid construction     ... off
Angular grids for H and He will be reduced by one unit

Total number of grid points                  ...    20913
Total number of batches                      ...      179
Average number of points per batch           ...      116
Average number of grid points per atom       ...      615
UseSFitting                                  ... on

GRIDX 2
-------
General Integration Accuracy     IntAcc      ... 4.020
Radial Grid Type                 RadialGrid  ... OptM3 with GC (2021)
Angular Grid (max. ang.)         AngularGrid ... 2 (Lebedev-110)
Angular grid pruning method      GridPruning ... 4 (adaptive)
Weight generation scheme         WeightScheme... mBecke (2022)
Basis function cutoff            BFCut       ... 1.0000e-11
Integration weight cutoff        WCut        ... 1.0000e-14
Partially contracted basis set               ... on
Rotationally invariant grid construction     ... off
Angular grids for H and He will be reduced by one unit

Total number of grid points                  ...    45617
Total number of batches                      ...      372
Average number of points per batch           ...      122
Average number of grid points per atom       ...     1342
UseSFitting                                  ... on

GRIDX 3
-------
General Integration Accuracy     IntAcc      ... 4.338
Radial Grid Type                 RadialGrid  ... OptM3 with GC (2021)
Angular Grid (max. ang.)         AngularGrid ... 3 (Lebedev-194)
Angular grid pruning method      GridPruning ... 4 (adaptive)
Weight generation scheme         WeightScheme... mBecke (2022)
Basis function cutoff            BFCut       ... 1.0000e-11
Integration weight cutoff        WCut        ... 1.0000e-14
Partially contracted basis set               ... on
Rotationally invariant grid construction     ... off
Angular grids for H and He will be reduced by one unit

Total number of grid points                  ...    99904
Total number of batches                      ...      798
Average number of points per batch           ...      125
Average number of grid points per atom       ...     2938
UseSFitting                                  ... on
Initializing property integral containers    ... done (  1.0 sec)

SHARK setup successfully completed in  97.1 seconds

Maximum memory used throughout the entire STARTUP-calculation: 62.4 MB


           ************************************************************
           *        Program running with 128 parallel MPI-processes   *
           *              working on a common directory               *
           ************************************************************
-------------------------------------------------------------------------------
                                 ORCA GUESS
                   Start orbitals & Density for SCF / CASSCF
-------------------------------------------------------------------------------

------------
SCF SETTINGS
------------
Hamiltonian:
 Density Functional     Method          .... DFT(GTOs)
 Exchange Functional    Exchange        .... WB88
 Correlation Functional Correlation     .... LYP
 LDA part of GGA corr.  LDAOpt          .... VWN-5
 Gradients option       PostSCFGGA      .... off
 Hybrid DFT is turned on
   Fraction HF Exchange ScalHFX         ....  0.190000
   Scaling of DF-GGA-X  ScalDFX         ....  0.350000
   Scaling of DF-GGA-C  ScalDFC         ....  0.810000
   Scaling of DF-LDA-C  ScalLDAC        ....  1.000000
   Perturbative correction              ....  0.000000
 Long-range corrected/Screened/Range-Separated Hybrid DFT is turned on
   Amount of maximum screened exact exchange              ....  0.460000
   Range separation parameter mu (erf(mu*r12)/r12)        ....  0.330000
 RI-approximation to the Coulomb term is turned on
   Number of AuxJ basis functions       .... 1134
   RIJ-COSX (HFX calculated with COS-X)).... on


General Settings:
 Integral files         IntName         .... hbq-es
 Hartree-Fock type      HFTyp           .... RHF
 Total Charge           Charge          ....    0
 Multiplicity           Mult            ....    1
 Number of Electrons    NEL             ....  140
 Basis Dimension        Dim             ....  564
 Nuclear Repulsion      ENuc            ....   1520.5469793574 Eh

Convergence Acceleration:
 AO-DIIS                CNVDIIS         .... on
   Start iteration      DIISMaxIt       ....    12
   Startup error        DIISStart       ....  0.200000
   # of expansion vecs  DIISMaxEq       ....     5
   Bias factor          DIISBfac        ....   1.050
   Max. coefficient     DIISMaxC        ....  10.000
 MO-DIIS                CNVKDIIS        .... off
 Trust-Rad. Augm. Hess. CNVTRAH         .... auto
   Auto Start mean grad. ratio tolernc. ....  1.125000
   Auto Start start iteration           ....    50
   Auto Start num. interpolation iter.  ....    10
   Max. Number of Micro iterations      ....    24
   Max. Number of Macro iterations      .... Maxiter - #DIIS iter
   Number of Davidson start vectors     ....     2
   Converg. threshold    (grad. norm)   ....   1.000e-05
   Grad. Scal. Fac. for Micro threshold ....   0.100
   Minimum threshold for Micro iter.    ....   1.000e-02
   NR start threshold (gradient norm)   ....   1.000e-04
   Initial trust radius                 ....   0.400
   Minimum AH scaling param. (alpha)    ....   1.000
   Maximum AH scaling param. (alpha)    .... 1000.000
   Quad. conv. algorithm                .... NR
   White noise on init. David. guess    .... on
   Maximum white noise                  ....   0.010
   Pseudo random numbers                .... off
   Inactive MOs                         .... canonical
   Orbital update algorithm             .... Taylor
   Preconditioner                       .... Diag
   Full preconditioner red. dimension   ....   250
 SOSCF                  CNVSOSCF        .... on
   Start iteration      SOSCFMaxIt      ....   150
   Startup grad/error   SOSCFStart      ....  0.003300
   Hessian update       SOSCFHessUp     .... L-BFGS
 Level Shifting         CNVShift        .... on
   Level shift para.    LevelShift      ....    0.2500
   Turn off err/grad.   ShiftErr        ....    0.0010
 Zerner damping         CNVZerner       .... off
 Static damping         CNVDamp         .... on
   Fraction old density DampFac         ....    0.7000
   Max. Damping (<1)    DampMax         ....    0.9800
   Min. Damping (>=0)   DampMin         ....    0.0000
   Turn off err/grad.   DampErr         ....    0.1000

SCF Procedure:
 Maximum # iterations   MaxIter         ....   125
 SCF integral mode      SCFMode         .... Direct
   Integral package                     .... SHARK and LIBINT hybrid scheme
 Reset frequency        DirectResetFreq ....    20
 Integral Threshold     Thresh          ....  2.500e-11 Eh
 Primitive CutOff       TCut            ....  2.500e-12 Eh

Convergence Tolerance:
 Convergence Check Mode ConvCheckMode   .... Total+1el-Energy
 Convergence forced     ConvForced      .... 1
 Energy Change          TolE            ....  1.000e-08 Eh
 1-El. energy change                    ....  1.000e-05 Eh
 Orbital Gradient       TolG            ....  1.000e-05
 Orbital Rotation angle TolX            ....  1.000e-05
 DIIS Error             TolErr          ....  5.000e-07

------------------------------
INITIAL GUESS: MODEL POTENTIAL
------------------------------
Loading Hartree-Fock densities                     ... done
Calculating cut-offs                               ... done
Initializing the effective Hamiltonian             ... done
Setting up the integral package (SHARK)            ... done
Starting the Coulomb interaction                   ... done (   1.6 sec)
Making the grid                                    ... done (  13.4 sec)
Mapping shells                                     ... done
Starting the XC term evaluation                    ... done (   1.2 sec)
  promolecular density results
     # of electrons  =    139.980366331
     EX              =   -115.380061119
     EC              =     -4.708380864
     EX+EC           =   -120.088441983
Transforming the Hamiltonian                       ... done (   3.7 sec)
Diagonalizing the Hamiltonian                      ... done (   0.6 sec)
Back transforming the eigenvectors                 ... done (   4.9 sec)
Now organizing SCF variables                       ... done
                      ------------------
                      INITIAL GUESS DONE (  51.8 sec)
                      ------------------
             **** ENERGY FILE WAS UPDATED (hbq-es.en.tmp) ****
Finished Guess after 100.9 sec
Maximum memory used throughout the entire GUESS-calculation: 46.0 MB


           ************************************************************
           *        Program running with 128 parallel MPI-processes   *
           *              working on a common directory               *
           ************************************************************

-------------------------------------------------------------------------------------------
                                      ORCA LEAN-SCF
                              memory conserving SCF solver
-------------------------------------------------------------------------------------------

--------------------
CPCM SOLVATION MODEL
--------------------
CPCM parameters:
  Epsilon                                         ...      80.1510
  Refrac                                          ...       1.3328
  Rsolv                                           ...       1.3000
  Surface type                                    ... GAUSSIAN VDW
  Discretization scheme                           ... Constant charge density
    Threshold for H atoms                         ...       5.0000 (charges/Ang^2)
    Threshold for non-H atoms                     ...       5.0000 (charges/Ang^2)
  Epsilon function type                           ...         CPCM
Solvent:                                          ... WATER
Radii:
  Scheme                                          ... Element-dependent radii
  Radius for C  used is    3.8550 Bohr (=   2.0400 Ang.)
  Radius for O  used is    3.4469 Bohr (=   1.8240 Ang.)
  Radius for N  used is    3.5149 Bohr (=   1.8600 Ang.)
  Radius for H  used is    2.4944 Bohr (=   1.3200 Ang.)
Calculating surface                               ...        done! (  0.0s)
Cavity surface points                             ...         3002
Cavity Volume                                     ...    2116.2306
Cavity Surface-area                               ...    1072.1669
Calculating surface distance matrix               ...        done! (  0.3s)
Performing Cholesky decomposition & store         ...        done! (  3.0s)
Overall time for CPCM initialization              ...                 3.3s

----------------------------------------D-I-I-S--------------------------------------------
Iteration    Energy (Eh)           Delta-E    RMSDP     MaxDP     DIISErr   Damp  Time(sec)
-------------------------------------------------------------------------------------------
               ***  Starting incremental Fock matrix formation  ***
    1    -877.5964616826993279     0.00e+00  2.19e-03  1.33e-01  2.77e-01  0.700 140.3
    2    -877.7591308353219119    -1.63e-01  1.72e-03  9.23e-02  1.25e-01  0.700 151.1
                               ***Turning on AO-DIIS***
    3    -877.8363646239256468    -7.72e-02  1.12e-03  6.22e-02  3.94e-02  0.700 142.6
    4    -877.8827772943971013    -4.64e-02  2.46e-03  1.38e-01  3.06e-02  0.000 123.6
    5    -877.9831871525782390    -1.00e-01  1.79e-04  6.20e-03  4.06e-03  0.000 133.2
                              *** Initializing SOSCF ***
---------------------------------------S-O-S-C-F--------------------------------------
Iteration    Energy (Eh)           Delta-E    RMSDP     MaxDP     MaxGrad    Time(sec)
--------------------------------------------------------------------------------------
    6    -877.9835163104196454    -3.29e-04  6.09e-05  2.38e-03  2.00e-03   127.6
               *** Restarting incremental Fock matrix formation ***
    7    -877.9835201442631387    -3.83e-06  6.81e-05  2.45e-03  5.87e-04   107.0
    8    -877.9835390522041507    -1.89e-05  4.28e-05  1.27e-03  1.56e-04   120.7
    9    -877.9835411961983027    -2.14e-06  2.52e-05  9.54e-04  1.48e-04    94.2
   10    -877.9835436921191558    -2.50e-06  3.67e-06  1.40e-04  1.83e-05   112.3
   11    -877.9835437361714412    -4.41e-08  3.32e-06  3.54e-04  1.45e-05   141.9
   12    -877.9835437809449559    -4.48e-08  3.77e-06  2.51e-04  5.47e-06   110.0
   13    -877.9835437924082271    -1.15e-08  1.12e-06  3.69e-05  3.94e-06   129.8
   14    -877.9835438105199046    -1.81e-08  2.78e-06  1.94e-04  6.64e-07   126.0
                  *** Gradient check signals convergence ***

               *****************************************************
               *                     SUCCESS                       *
               *           SCF CONVERGED AFTER  14 CYCLES          *
               *****************************************************

Recomputing exchange energy using gridx3       ... done (   12.875 sec)
Old exchange energy                            :    -33.305111560 Eh
New exchange energy                            :    -33.305099845 Eh
Exchange energy change after final integration :      0.000011715 Eh
Total energy after final integration           :   -877.983532095 Eh
             **** ENERGY FILE WAS UPDATED (hbq-es.en.tmp) ****

----------------
TOTAL SCF ENERGY
----------------

Total Energy       :       -877.98353209541290 Eh          -23891.14651 eV

Components:
Nuclear Repulsion  :       1520.54697935741001 Eh           41376.18683 eV
Electronic Energy  :      -2398.50583910167461 Eh          -65266.66197 eV
One Electron Energy:      -4214.37103208182725 Eh         -114678.86594 eV
Two Electron Energy:       1815.86519298015287 Eh           49412.20397 eV
CPCM Dielectric    :         -0.02468406625575 Eh              -0.67169 eV

Virial components:
Potential Energy   :      -1751.87346232649679 Eh          -47670.90045 eV
Kinetic Energy     :        873.88993023108378 Eh           23779.75394 eV
Virial Ratio       :          2.00468434493031

DFT components:
N(Alpha)           :       69.999992112139 electrons
N(Beta)            :       69.999992112139 electrons
N(Total)           :      139.999984224278 electrons
E(XC)              :      -89.491682790324 Eh       

CPCM Solvation Model Properties:
Surface-charge          :         -0.03311551316248
Corrected charge        :          0.00000000000000
Outlying charge corr.   :          0.00006201550311 Eh               0.00169 eV
Free-energy (cav+disp)  :  This term is not implemented in the current solvation scheme

---------------
SCF CONVERGENCE
---------------

  Last Energy change         ...    1.8112e-08  Tolerance :   1.0000e-08
  Last MAX-Density change    ...    1.9422e-04  Tolerance :   1.0000e-07
  Last RMS-Density change    ...    2.7765e-06  Tolerance :   5.0000e-09
  Last DIIS Error            ...    2.0034e-03  Tolerance :   5.0000e-07
  Last Orbital Gradient      ...    6.6353e-07  Tolerance :   1.0000e-05
  Last Orbital Rotation      ...    1.8415e-06  Tolerance :   1.0000e-05


----------------
ORBITAL ENERGIES
----------------

  NO   OCC          E(Eh)            E(eV) 
   0   2.0000     -19.247434      -523.7493 
   1   2.0000     -19.177104      -521.8355 
   2   2.0000     -14.426800      -392.5732 
   3   2.0000     -14.396670      -391.7533 
   4   2.0000     -10.403113      -283.0831 
   5   2.0000     -10.325624      -280.9745 
   6   2.0000     -10.302252      -280.3385 
   7   2.0000     -10.289273      -279.9853 
   8   2.0000     -10.275612      -279.6136 
   9   2.0000     -10.273935      -279.5680 
  10   2.0000     -10.272305      -279.5236 
  11   2.0000     -10.272242      -279.5219 
  12   2.0000     -10.270373      -279.4711 
  13   2.0000     -10.269358      -279.4434 
  14   2.0000     -10.259515      -279.1756 
  15   2.0000     -10.259404      -279.1726 
  16   2.0000     -10.258100      -279.1371 
  17   2.0000     -10.257936      -279.1326 
  18   2.0000     -10.254380      -279.0359 
  19   2.0000     -10.253866      -279.0219 
  20   2.0000      -1.200799       -32.6754 
  21   2.0000      -1.110573       -30.2202 
  22   2.0000      -1.034000       -28.1366 
  23   2.0000      -1.031150       -28.0590 
  24   2.0000      -0.961961       -26.1763 
  25   2.0000      -0.919004       -25.0074 
  26   2.0000      -0.889310       -24.1994 
  27   2.0000      -0.863815       -23.5056 
  28   2.0000      -0.832267       -22.6471 
  29   2.0000      -0.821591       -22.3566 
  30   2.0000      -0.801106       -21.7992 
  31   2.0000      -0.784713       -21.3531 
  32   2.0000      -0.736578       -20.0433 
  33   2.0000      -0.724885       -19.7251 
  34   2.0000      -0.703385       -19.1401 
  35   2.0000      -0.697077       -18.9684 
  36   2.0000      -0.644889       -17.5483 
  37   2.0000      -0.620523       -16.8853 
  38   2.0000      -0.609888       -16.5959 
  39   2.0000      -0.603353       -16.4181 
  40   2.0000      -0.583474       -15.8771 
  41   2.0000      -0.572031       -15.5657 
  42   2.0000      -0.564499       -15.3608 
  43   2.0000      -0.553678       -15.0663 
  44   2.0000      -0.550145       -14.9702 
  45   2.0000      -0.533459       -14.5162 
  46   2.0000      -0.513126       -13.9629 
  47   2.0000      -0.511227       -13.9112 
  48   2.0000      -0.509453       -13.8629 
  49   2.0000      -0.496653       -13.5146 
  50   2.0000      -0.492193       -13.3933 
  51   2.0000      -0.478166       -13.0116 
  52   2.0000      -0.475019       -12.9259 
  53   2.0000      -0.472470       -12.8566 
  54   2.0000      -0.469543       -12.7769 
  55   2.0000      -0.466867       -12.7041 
  56   2.0000      -0.451074       -12.2744 
  57   2.0000      -0.450760       -12.2658 
  58   2.0000      -0.442846       -12.0505 
  59   2.0000      -0.429512       -11.6876 
  60   2.0000      -0.417205       -11.3527 
  61   2.0000      -0.404159       -10.9977 
  62   2.0000      -0.386016       -10.5040 
  63   2.0000      -0.368108       -10.0167 
  64   2.0000      -0.356945        -9.7130 
  65   2.0000      -0.335918        -9.1408 
  66   2.0000      -0.330440        -8.9917 
  67   2.0000      -0.313561        -8.5324 
  68   2.0000      -0.295484        -8.0405 
  69   2.0000      -0.267184        -7.2704 
  70   0.0000      -0.030595        -0.8325 
  71   0.0000      -0.016582        -0.4512 
  72   0.0000       0.028622         0.7789 
  73   0.0000       0.058537         1.5929 
  74   0.0000       0.074324         2.0225 
  75   0.0000       0.092824         2.5259 
  76   0.0000       0.101105         2.7512 
  77   0.0000       0.105170         2.8618 
  78   0.0000       0.107108         2.9146 
  79   0.0000       0.120510         3.2792 
  80   0.0000       0.122553         3.3348 
*Only the first 10 virtual orbitals were printed.

                    ********************************
                    * MULLIKEN POPULATION ANALYSIS *
                    ********************************

-----------------------
MULLIKEN ATOMIC CHARGES
-----------------------
   0 C :   -0.187899
   1 C :   -0.119079
   2 C :   -0.213373
   3 C :    0.160409
   4 C :    0.147874
   5 O :   -0.470902
   6 C :    0.194008
   7 C :   -0.223333
   8 C :   -0.251519
   9 C :    0.172492
  10 C :    0.250969
  11 N :   -0.529086
  12 C :    0.061212
  13 C :   -0.082938
  14 C :   -0.189168
  15 C :    0.702649
  16 O :   -0.606799
  17 N :   -0.236518
  18 C :   -0.289378
  19 C :   -0.274944
  20 H :    0.145330
  21 H :    0.151056
  22 H :    0.153704
  23 H :    0.144525
  24 H :    0.162747
  25 H :    0.151905
  26 H :    0.128909
  27 H :    0.130600
  28 H :    0.132051
  29 H :    0.130168
  30 H :    0.128057
  31 H :    0.140612
  32 H :    0.139800
  33 H :    0.145858
Sum of atomic charges:   -0.0000000

--------------------------------
MULLIKEN REDUCED ORBITAL CHARGES
--------------------------------
  0 C s       :     3.214917  s :     3.214917
      pz      :     0.980600  p :     2.900608
      px      :     0.937446
      py      :     0.982562
      dz2     :     0.016514  d :     0.072374
      dxz     :     0.012624
      dyz     :     0.013512
      dx2y2   :     0.013171
      dxy     :     0.016554

  1 C s       :     3.201092  s :     3.201092
      pz      :     0.937924  p :     2.831588
      px      :     0.940570
      py      :     0.953093
      dz2     :     0.017638  d :     0.086398
      dxz     :     0.018827
      dyz     :     0.009675
      dx2y2   :     0.017485
      dxy     :     0.022773

  2 C s       :     3.220941  s :     3.220941
      pz      :     1.001312  p :     2.910297
      px      :     0.949221
      py      :     0.959764
      dz2     :     0.008264  d :     0.082134
      dxz     :     0.022817
      dyz     :     0.009117
      dx2y2   :     0.019487
      dxy     :     0.022449

  3 C s       :     3.165102  s :     3.165102
      pz      :     0.827098  p :     2.477420
      px      :     0.802227
      py      :     0.848095
      dz2     :     0.035645  d :     0.197069
      dxz     :     0.032964
      dyz     :     0.024288
      dx2y2   :     0.063649
      dxy     :     0.040524

  4 C s       :     3.305050  s :     3.305050
      pz      :     0.911379  p :     2.420099
      px      :     0.641559
      py      :     0.867160
      dz2     :     0.022550  d :     0.126978
      dxz     :     0.031174
      dyz     :     0.014738
      dx2y2   :     0.030376
      dxy     :     0.028140

  5 O s       :     3.820968  s :     3.820968
      pz      :     1.648567  p :     4.607012
      px      :     1.680932
      py      :     1.277513
      dz2     :     0.007383  d :     0.042923
      dxz     :     0.006453
      dyz     :     0.010514
      dx2y2   :     0.010081
      dxy     :     0.008491

  6 C s       :     3.064818  s :     3.064818
      pz      :     0.899715  p :     2.593056
      px      :     0.884364
      py      :     0.808976
      dz2     :     0.024745  d :     0.148119
      dxz     :     0.032829
      dyz     :     0.019776
      dx2y2   :     0.037445
      dxy     :     0.033324

  7 C s       :     3.237342  s :     3.237342
      pz      :     0.957083  p :     2.899789
      px      :     0.968915
      py      :     0.973791
      dz2     :     0.010345  d :     0.086202
      dxz     :     0.020912
      dyz     :     0.011071
      dx2y2   :     0.026817
      dxy     :     0.017057

  8 C s       :     3.266844  s :     3.266844
      pz      :     0.965454  p :     2.897872
      px      :     0.962944
      py      :     0.969475
      dz2     :     0.022596  d :     0.086802
      dxz     :     0.013120
      dyz     :     0.016085
      dx2y2   :     0.020928
      dxy     :     0.014073

  9 C s       :     3.063863  s :     3.063863
      pz      :     0.799718  p :     2.597726
      px      :     0.915252
      py      :     0.882756
      dz2     :     0.037186  d :     0.165919
      dxz     :     0.042273
      dyz     :     0.016386
      dx2y2   :     0.036594
      dxy     :     0.033480

 10 C s       :     3.052675  s :     3.052675
      pz      :     0.851141  p :     2.558619
      px      :     0.876722
      py      :     0.830755
      dz2     :     0.028696  d :     0.137738
      dxz     :     0.025567
      dyz     :     0.020682
      dx2y2   :     0.033432
      dxy     :     0.029360

 11 N s       :     3.650842  s :     3.650842
      pz      :     1.177656  p :     3.803769
      px      :     1.491785
      py      :     1.134329
      dz2     :     0.015783  d :     0.074474
      dxz     :     0.016682
      dyz     :     0.011437
      dx2y2   :     0.012565
      dxy     :     0.018006

 12 C s       :     3.146453  s :     3.146453
      pz      :     0.936179  p :     2.684975
      px      :     0.869392
      py      :     0.879404
      dz2     :     0.016531  d :     0.107359
      dxz     :     0.023111
      dyz     :     0.012867
      dx2y2   :     0.031255
      dxy     :     0.023595

 13 C s       :     3.149554  s :     3.149554
      pz      :     0.953410  p :     2.856393
      px      :     0.929737
      py      :     0.973246
      dz2     :     0.015276  d :     0.076991
      dxz     :     0.018394
      dyz     :     0.010566
      dx2y2   :     0.015239
      dxy     :     0.017516

 14 C s       :     3.227417  s :     3.227417
      pz      :     0.941573  p :     2.878597
      px      :     1.005783
      py      :     0.931241
      dz2     :     0.019990  d :     0.083154
      dxz     :     0.017136
      dyz     :     0.013041
      dx2y2   :     0.017802
      dxy     :     0.015185

 15 C s       :     2.824863  s :     2.824863
      pz      :     0.730384  p :     2.168647
      px      :     0.779644
      py      :     0.658619
      dz2     :     0.072393  d :     0.303841
      dxz     :     0.056804
      dyz     :     0.088923
      dx2y2   :     0.043064
      dxy     :     0.042658

 16 O s       :     3.855279  s :     3.855279
      pz      :     1.448314  p :     4.718701
      px      :     1.540698
      py      :     1.729689
      dz2     :     0.011339  d :     0.032818
      dxz     :     0.009479
      dyz     :     0.007683
      dx2y2   :     0.001983
      dxy     :     0.002335

 17 N s       :     3.427780  s :     3.427780
      pz      :     1.132413  p :     3.722167
      px      :     1.504721
      py      :     1.085033
      dz2     :     0.020263  d :     0.086572
      dxz     :     0.014426
      dyz     :     0.025201
      dx2y2   :     0.013409
      dxy     :     0.013274

 18 C s       :     3.251673  s :     3.251673
      pz      :     0.807843  p :     2.968281
      px      :     1.086312
      py      :     1.074126
      dz2     :     0.017197  d :     0.069424
      dxz     :     0.026137
      dyz     :     0.010962
      dx2y2   :     0.008234
      dxy     :     0.006894

 19 C s       :     3.246546  s :     3.246546
      pz      :     1.108524  p :     2.960434
      px      :     1.096487
      py      :     0.755422
      dz2     :     0.009109  d :     0.067964
      dxz     :     0.005986
      dyz     :     0.014131
      dx2y2   :     0.011833
      dxy     :     0.026906

 20 H s       :     0.832368  s :     0.832368
      pz      :     0.007114  p :     0.022302
      px      :     0.009602
      py      :     0.005585

 21 H s       :     0.826453  s :     0.826453
      pz      :     0.005408  p :     0.022491
      px      :     0.013035
      py      :     0.004048

 22 H s       :     0.822332  s :     0.822332
      pz      :     0.015347  p :     0.023964
      px      :     0.004586
      py      :     0.004031

 23 H s       :     0.833094  s :     0.833094
      pz      :     0.008078  p :     0.022380
      px      :     0.009705
      py      :     0.004597

 24 H s       :     0.813275  s :     0.813275
      pz      :     0.003279  p :     0.023978
      px      :     0.004563
      py      :     0.016136

 25 H s       :     0.825591  s :     0.825591
      pz      :     0.004427  p :     0.022504
      px      :     0.012532
      py      :     0.005545

 26 H s       :     0.845177  s :     0.845177
      pz      :     0.010386  p :     0.025913
      px      :     0.005584
      py      :     0.009943

 27 H s       :     0.843408  s :     0.843408
      pz      :     0.005287  p :     0.025991
      px      :     0.016954
      py      :     0.003751

 28 H s       :     0.842190  s :     0.842190
      pz      :     0.006291  p :     0.025759
      px      :     0.007909
      py      :     0.011559

 29 H s       :     0.843878  s :     0.843878
      pz      :     0.010921  p :     0.025954
      px      :     0.005156
      py      :     0.009878

 30 H s       :     0.846081  s :     0.846081
      pz      :     0.005572  p :     0.025861
      px      :     0.016290
      py      :     0.004000

 31 H s       :     0.834902  s :     0.834902
      pz      :     0.012262  p :     0.024487
      px      :     0.004551
      py      :     0.007673

[...]
 51:   1012.45   0.001880    9.50  0.000579  ( 0.014628 -0.018606  0.004386)
 52:   1037.63   0.008676   43.85  0.002609  (-0.002043 -0.051041  0.000047)
 53:   1083.96   0.009897   50.01  0.002849  ( 0.046809 -0.024950  0.005974)
 54:   1092.08   0.004183   21.14  0.001195  ( 0.001125  0.032700 -0.011162)
 55:   1102.24   0.004046   20.45  0.001145  ( 0.025748  0.013912  0.016997)
 56:   1106.64   0.002856   14.43  0.000805  (-0.027389 -0.006248 -0.004023)
 57:   1133.88   0.002784   14.07  0.000766  ( 0.006475 -0.026854  0.001767)
 58:   1137.46   0.002745   13.87  0.000753  (-0.015548 -0.021470 -0.007098)
 59:   1167.98   0.149837  757.22  0.040034  (-0.087719  0.158086  0.085722)
 60:   1178.58   0.009576   48.39  0.002536  (-0.019797  0.042131  0.019198)
 61:   1189.73   0.038380  193.96  0.010067  (-0.032152  0.091328  0.026317)
 62:   1217.70   0.020444  103.32  0.005239  (-0.042511  0.055748  0.018009)
 63:   1233.72   0.010205   51.57  0.002581  ( 0.018346  0.045205  0.014182)
 64:   1271.05   0.018588   93.94  0.004564  ( 0.037588 -0.054131 -0.014856)
 65:   1273.72   0.015666   79.17  0.003838  (-0.023700  0.053269  0.020947)
 66:   1298.94   0.000497    2.51  0.000119  ( 0.008713  0.000683  0.006550)
 67:   1309.73   0.003136   15.85  0.000747  (-0.003286 -0.023465  0.013631)
 68:   1354.04   0.015383   77.74  0.003545  ( 0.034112 -0.041276 -0.026038)
 69:   1406.06   0.018852   95.27  0.004184  (-0.027177 -0.048098 -0.033645)
 70:   1413.74   0.015373   77.69  0.003393  ( 0.020428 -0.050582 -0.020436)
 71:   1434.59   0.028273  142.88  0.006150  ( 0.033046 -0.064142 -0.030724)
 72:   1444.43   0.004818   24.35  0.001041  ( 0.019419 -0.021728 -0.013849)
 73:   1451.55   0.002058   10.40  0.000443  ( 0.005842 -0.002918 -0.019997)
 74:   1463.81   0.002692   13.61  0.000574  ( 0.015579 -0.018188 -0.000655)
 75:   1470.44   0.006502   32.86  0.001380  (-0.017672  0.026001 -0.019786)
 76:   1478.52   0.004828   24.40  0.001019  (-0.018422  0.009052  0.024447)
 77:   1482.70   0.000310    1.57  0.000065  (-0.001280 -0.006772 -0.004225)
 78:   1485.78   0.001934    9.77  0.000406  (-0.006591 -0.017021 -0.008549)
 79:   1490.70   0.009442   47.72  0.001977  (-0.041527 -0.012191  0.010169)
 80:   1500.10   0.002749   13.89  0.000572  (-0.001765 -0.018048  0.015588)
 81:   1530.70   0.010873   54.95  0.002217  ( 0.002061  0.047032 -0.000582)
 82:   1537.33   0.018064   91.29  0.003667  (-0.032575  0.045105  0.023902)
 83:   1545.40   0.005804   29.33  0.001172  ( 0.021750 -0.023785 -0.011542)
 84:   1575.63   0.004268   21.57  0.000845  ( 0.015272 -0.011929 -0.021675)
 85:   1595.98   0.005992   30.28  0.001172  (-0.033095 -0.002398  0.008408)
 86:   1603.29   0.003010   15.21  0.000586  (-0.012907  0.012049  0.016558)
 87:   1748.15   0.206910  1045.64  0.036936  (-0.059899  0.007786  0.182448)
 88:   3044.22   0.008765   44.30  0.000899  ( 0.003585  0.029747  0.000915)
 89:   3050.38   0.014296   72.25  0.001463  (-0.006254 -0.011658 -0.035882)
 90:   3120.67   0.007897   39.91  0.000790  ( 0.027855 -0.003594 -0.000934)
 91:   3124.26   0.003628   18.34  0.000362  ( 0.018709 -0.002122 -0.002805)
 92:   3178.23   0.004569   23.09  0.000449  (-0.004026  0.013951  0.015421)
 93:   3187.35   0.000819    4.14  0.000080  (-0.000337  0.002074 -0.008703)
 94:   3198.38   0.000041    0.21  0.000004  ( 0.000026  0.001304  0.001504)
 95:   3199.67   0.001029    5.20  0.000100  ( 0.000288  0.009983  0.000813)
 96:   3200.57   0.000735    3.71  0.000072  ( 0.002569 -0.005758 -0.005646)
 97:   3205.18   0.000649    3.28  0.000063  (-0.006758  0.001542  0.003892)
 98:   3215.55   0.002499   12.63  0.000243  (-0.011808  0.005508  0.008531)
 99:   3218.86   0.001615    8.16  0.000157  (-0.003522  0.009215  0.007698)
100:   3227.12   0.001396    7.05  0.000135  (-0.006736 -0.008143 -0.004823)
101:   3232.01   0.001119    5.65  0.000108  ( 0.005560  0.007669  0.004277)

* The epsilon (eps) is given for a Dirac delta lineshape.
** The dipole moment derivative (T) already includes vibrational overlap.

The first frequency considered to be a vibration is 6
The total number of vibrations considered is 96


--------------------------
THERMOCHEMISTRY AT 298.15K
--------------------------

Temperature         ...   298.15 K
Pressure            ...     1.00 atm
Total Mass          ...   266.30 AMU
Quasi RRHO          ...     True
Cut-Off Frequency   ...     1.00 cm^-1

Throughout the following assumptions are being made:
  (1) The electronic state is orbitally nondegenerate
  (2) There are no thermally accessible electronically excited states
  (3) Hindered rotations indicated by low frequency modes are not
      treated as such but are treated as vibrations and this may
      cause some error
  (4) All equations used are the standard statistical mechanics
      equations for an ideal gas
  (5) All vibrations are strictly harmonic

freq.      21.78  E(vib)   ...       0.56 
freq.      32.06  E(vib)   ...       0.55 
freq.      55.65  E(vib)   ...       0.52 
freq.      72.15  E(vib)   ...       0.50 
freq.      84.44  E(vib)   ...       0.48 
freq.      94.77  E(vib)   ...       0.47 
freq.     118.88  E(vib)   ...       0.44 
freq.     137.09  E(vib)   ...       0.42 
freq.     178.58  E(vib)   ...       0.37 
freq.     207.85  E(vib)   ...       0.34 
freq.     216.66  E(vib)   ...       0.34 
freq.     228.74  E(vib)   ...       0.32 
freq.     251.91  E(vib)   ...       0.30 
freq.     282.62  E(vib)   ...       0.28 
freq.     357.87  E(vib)   ...       0.22 
freq.     368.56  E(vib)   ...       0.21 
freq.     376.02  E(vib)   ...       0.21 
freq.     406.25  E(vib)   ...       0.19 
freq.     445.04  E(vib)   ...       0.17 
freq.     462.78  E(vib)   ...       0.16 
freq.     478.79  E(vib)   ...       0.15 
freq.     504.20  E(vib)   ...       0.14 
freq.     517.61  E(vib)   ...       0.13 
freq.     529.28  E(vib)   ...       0.13 
freq.     551.63  E(vib)   ...       0.12 
freq.     583.77  E(vib)   ...       0.11 
freq.     611.28  E(vib)   ...       0.10 
freq.     645.22  E(vib)   ...       0.09 
freq.     678.43  E(vib)   ...       0.08 
freq.     687.45  E(vib)   ...       0.07 
freq.     719.40  E(vib)   ...       0.07 
freq.     723.76  E(vib)   ...       0.06 
freq.     749.05  E(vib)   ...       0.06 
freq.     767.56  E(vib)   ...       0.06 
freq.     803.47  E(vib)   ...       0.05 
freq.     827.80  E(vib)   ...       0.04 
freq.     836.74  E(vib)   ...       0.04 
freq.     858.21  E(vib)   ...       0.04 
freq.     862.48  E(vib)   ...       0.04 
freq.     897.31  E(vib)   ...       0.03 
freq.     918.03  E(vib)   ...       0.03 
freq.     944.62  E(vib)   ...       0.03 
freq.     957.80  E(vib)   ...       0.03 
freq.     969.10  E(vib)   ...       0.03 
freq.    1004.01  E(vib)   ...       0.02 
freq.    1012.45  E(vib)   ...       0.02 
freq.    1037.63  E(vib)   ...       0.02 
freq.    1083.96  E(vib)   ...       0.02 
freq.    1092.08  E(vib)   ...       0.02 
freq.    1102.24  E(vib)   ...       0.02 
freq.    1106.64  E(vib)   ...       0.02 
freq.    1133.88  E(vib)   ...       0.01 
freq.    1137.46  E(vib)   ...       0.01 
freq.    1167.98  E(vib)   ...       0.01 
freq.    1178.58  E(vib)   ...       0.01 
freq.    1189.73  E(vib)   ...       0.01 
freq.    1217.70  E(vib)   ...       0.01 
freq.    1233.72  E(vib)   ...       0.01 
freq.    1271.05  E(vib)   ...       0.01 
freq.    1273.72  E(vib)   ...       0.01 
freq.    1298.94  E(vib)   ...       0.01 
freq.    1309.73  E(vib)   ...       0.01 
freq.    1354.04  E(vib)   ...       0.01 
freq.    1406.06  E(vib)   ...       0.00 
freq.    1413.74  E(vib)   ...       0.00 
freq.    1434.59  E(vib)   ...       0.00 
freq.    1444.43  E(vib)   ...       0.00 
freq.    1451.55  E(vib)   ...       0.00 
freq.    1463.81  E(vib)   ...       0.00 
freq.    1470.44  E(vib)   ...       0.00 
freq.    1478.52  E(vib)   ...       0.00 
freq.    1482.70  E(vib)   ...       0.00 
freq.    1485.78  E(vib)   ...       0.00 
freq.    1490.70  E(vib)   ...       0.00 
freq.    1500.10  E(vib)   ...       0.00 
freq.    1530.70  E(vib)   ...       0.00 
freq.    1537.33  E(vib)   ...       0.00 
freq.    1545.40  E(vib)   ...       0.00 
freq.    1575.63  E(vib)   ...       0.00 
freq.    1595.98  E(vib)   ...       0.00 
freq.    1603.29  E(vib)   ...       0.00 
freq.    1748.15  E(vib)   ...       0.00 
freq.    3044.22  E(vib)   ...       0.00 
freq.    3050.38  E(vib)   ...       0.00 
freq.    3120.67  E(vib)   ...       0.00 
freq.    3124.26  E(vib)   ...       0.00 
freq.    3178.23  E(vib)   ...       0.00 
freq.    3187.35  E(vib)   ...       0.00 
freq.    3198.38  E(vib)   ...       0.00 
freq.    3199.67  E(vib)   ...       0.00 
freq.    3200.57  E(vib)   ...       0.00 
freq.    3205.18  E(vib)   ...       0.00 
freq.    3215.55  E(vib)   ...       0.00 
freq.    3218.86  E(vib)   ...       0.00 
freq.    3227.12  E(vib)   ...       0.00 
freq.    3232.01  E(vib)   ...       0.00 

------------
INNER ENERGY
------------

The inner energy is: U= E(el) + E(ZPE) + E(vib) + E(rot) + E(trans)
    E(el)   - is the total energy from the electronic structure calculation
              = E(kin-el) + E(nuc-el) + E(el-el) + E(nuc-nuc)
    E(ZPE)  - the the zero temperature vibrational energy from the frequency calculation
    E(vib)  - the the finite temperature correction to E(ZPE) due to population
              of excited vibrational states
    E(rot)  - is the rotational thermal energy
    E(trans)- is the translational thermal energy

Summary of contributions to the inner energy U:
Electronic energy                ...   -877.84416226 Eh
Zero point energy                ...      0.26720526 Eh     167.67 kcal/mol
Thermal vibrational correction   ...      0.01444576 Eh       9.06 kcal/mol
Thermal rotational correction    ...      0.00141627 Eh       0.89 kcal/mol
Thermal translational correction ...      0.00141627 Eh       0.89 kcal/mol
-----------------------------------------------------------------------
Total thermal energy                   -877.55967870 Eh


Summary of corrections to the electronic energy:
(perhaps to be used in another calculation)
Total thermal correction                  0.01727830 Eh      10.84 kcal/mol
Non-thermal (ZPE) correction              0.26720526 Eh     167.67 kcal/mol
-----------------------------------------------------------------------
Total correction                          0.28448356 Eh     178.52 kcal/mol


--------
ENTHALPY
--------

The enthalpy is H = U + kB*T
                kB is Boltzmann's constant
Total thermal energy              ...   -877.55967870 Eh 
Thermal Enthalpy correction       ...      0.00094421 Eh       0.59 kcal/mol
-----------------------------------------------------------------------
Total Enthalpy                    ...   -877.55873449 Eh


Note: Only C1 symmetry has been detected, increase convergence thresholds 
      if your molecule has a higher symmetry. Symmetry factor of 1.0 is   
      used for the rotational entropy correction. 
 

Note: Rotational entropy computed according to Herzberg 
Infrared and Raman Spectra, Chapter V,1, Van Nostrand Reinhold, 1945 
Point Group:  C1, Symmetry Number:   1  
Rotational constants in cm-1:     0.016096     0.011777     0.007496 

Vibrational entropy computed according to the QRRHO of S. Grimme
Chem.Eur.J. 2012 18 9955 using a reference frequency of 100.0 cm-1


-------
ENTROPY
-------

The entropy contributions are T*S = T*(S(el)+S(vib)+S(rot)+S(trans))
     S(el)   - electronic entropy
     S(vib)  - vibrational entropy
     S(rot)  - rotational entropy
     S(trans)- translational entropy
The entropies will be listed as multiplied by the temperature to get
units of energy

Electronic entropy                ...      0.00000000 Eh      0.00 kcal/mol
Vibrational entropy               ...      0.02549202 Eh     16.00 kcal/mol
Rotational entropy                ...      0.01586709 Eh      9.96 kcal/mol
Translational entropy             ...      0.02025841 Eh     12.71 kcal/mol
-----------------------------------------------------------------------
Final entropy term                ...      0.06161753 Eh     38.67 kcal/mol

In case the symmetry of your molecule has not been determined correctly
or in case you have a reason to use a different symmetry number we print 
out the resulting rotational entropy values for sn=1,12:

 non-linear molecules -----------------------------------
|  sn= 1 | S(rot)=       0.01586709 Eh      9.96 kcal/mol|
|  sn= 2 | S(rot)=       0.01521263 Eh      9.55 kcal/mol|
|  sn= 3 | S(rot)=       0.01482980 Eh      9.31 kcal/mol|
|  sn= 4 | S(rot)=       0.01455818 Eh      9.14 kcal/mol|
|  sn= 5 | S(rot)=       0.01434749 Eh      9.00 kcal/mol|
|  sn= 6 | S(rot)=       0.01417534 Eh      8.90 kcal/mol|
|  sn= 7 | S(rot)=       0.01402980 Eh      8.80 kcal/mol|
|  sn= 8 | S(rot)=       0.01390372 Eh      8.72 kcal/mol|
|  sn= 9 | S(rot)=       0.01379251 Eh      8.65 kcal/mol|
|  sn=10 | S(rot)=       0.01369303 Eh      8.59 kcal/mol|
|  sn=11 | S(rot)=       0.01360304 Eh      8.54 kcal/mol|
|  sn=12 | S(rot)=       0.01352089 Eh      8.48 kcal/mol|
 linear molecules ---------------------------------------
|  Dinfh | S(rot)=       0.00994600 Eh      6.24 kcal/mol|
|  Cinfv | S(rot)=       0.01060046 Eh      6.65 kcal/mol|
 --------------------------------------------------------


-------------------
GIBBS FREE ENERGY
-------------------

The Gibbs free energy is G = H - T*S

Total enthalpy                    ...   -877.55873449 Eh 
Total entropy correction          ...     -0.06161753 Eh    -38.67 kcal/mol
-----------------------------------------------------------------------
Final Gibbs free energy         ...   -877.62035201 Eh

For completeness - the Gibbs free energy minus the electronic energy
G-E(el)                           ...      0.22381024 Eh    140.44 kcal/mol



--------------------------------
SUGGESTED CITATIONS FOR THIS RUN
--------------------------------

Below you find a list of papers that are relevant to this ORCA run
We neither can nor want to force you to cite these papers, but we appreciate if you do
You receive ORCA, which is the product of decades of hard work by many enthusiastic individuals, for free
The only thing we kindly ask in return is that you cite our papers,
We deeply appreciate it, if you show your appreciation for ORCA by not just citing the generic ORCA reference.

Please note that relegating all ORCA citations to the supporting information does *not* help us.
SI sections are not indexed - citations you put there will not count into any citation statistics
But we need these citations in order to attract the funding resources that allow us to do what we are doing

Therefore, if you are a happy ORCA user, please consider citing a few of the papers listed below in the main body of your paper

In addition to the list printed below, the program has created the file hbq-es.bibtex that contains the list in bibtex format
You can import this file easily into all common literature databanks and citation aid programs


List of essential papers. We consider these as the minimum necessary citations

  1. Neese,F.
     Software update: the ORCA program system, version 5.0
     WIRES Comput. Molec. Sci., 2022 12(1)e1606
     doi.org/10.1002/wcms.1606

List of papers to cite with high priority. The work reported in these papers was absolutely
necessary for this run to complete.
Our perspective: the developers of density functionals and basis sets usually get cited in chemistry papers
Good! But without the algorithms to do something with them, the functionals or basis sets would not do anything.
Hence, in our opinion, the algorithm design and method developments papers are equally worthy of getting cited

  1. Neese,F.; Olbrich,G.
     Efficient use of the resolution of the identity approximation in time-dependent density functional calculations with hybrid density functionals
     Chem. Phys. Lett., 2002 362 170-178
     doi.org/10.1016/s0009-2614(02)01053-9
  2. Neese,F.
     An improvement of the resolution of the identity approximation for the formation of the Coulomb matrix
     J. Comp. Chem., 2003 24(14)1740-1747
     doi.org/10.1002/jcc.10318
  3. Neese,F.; Wennmohs,F.; Hansen,A.; Becker,U.
     Efficient, approximate and parallel Hartree-Fock and hybrid DFT calculations. A 'chain-of-spheres' algorithm for the Hartree-Fock exchange
     Chem. Phys., 2009 356(1-3)98-109
     doi.org/10.1016/j.chemphys.2008.10.036
  4. Petrenko,T.; Kossmann,S.; Neese,F.
     Efficient time-dependent density functional theory approximations for hybrid density functionals: Analytical gradients and parallelization
     J. Chem. Phys., 2011 134 054116
     doi.org/10.1063/1.3533441
  5. Bykov,D.; Petrenko,T.; Izsak,R.; Kossmann,S.; Becker,U.; Valeev,E.; Neese,F.
     Efficient implementation of the analytic second derivatives of Hartree-Fock and hybrid DFT energies: a detailed analysis of different approximations
     Molec. Phys., 2015 113 1961-1977
     doi.org/10.1080/00268976.2015.1025114
  6. Garcia-Rates,M.; Neese,F.
     Effect of the Solute Cavity on the Solvation Energy and its Derivatives within the Framework of the Gaussian Charge Scheme
     J. Comput. Chem., 2020 41 922-939
     doi.org/10.1002/jcc.26139
  7. Helmich-Paris,B.; de Souza,B.; Neese,F.; Izsák,R.
     An improved chain of spheres for exchange algorithm
     J. Chem. Phys., 2021 155 104109
     doi.org/doi: 10.1063/5.0058766.
  8. Neese,F.
     The SHARK Integral Generation and Digestion System
     J. Comp. Chem., 2022  1-16
     doi.org/10.1002/jcc.26942

List of suggested additional citations. These are papers that are important in the 'surrounding' of 
of this run, or papers that preceded the highly important papers. If you like your results we are grateful for a citation.

  1. Izsak,R.; Neese,F.
     An overlap fitted chain of spheres exchange method
     J. Chem. Phys., 2011 135 144105
     doi.org/10.1063/1.3646921
  2. Izsak,R.; Hansen,A.; Neese,F.
     The resolution of identity and chain of spheres approximations for the LPNO-CCSD singles Fock term
     Molec. Phys., 2012 110 2413-2417
     doi.org/10.1080/00268976.2012.687466
  3. Neese,F.
     The ORCA program system
     WIRES Comput. Molec. Sci., 2012 2(1)73-78
     doi.org/10.1002/wcms.81
  4. Izsak,R.; Neese,F.; Klopper,W.
     Robust fitting techniques in the chain of spheres approximation to the Fock exchange: The role of the complementary space
     J. Chem. Phys., 2013 139 
     doi.org/10.1063/1.4819264
  5. Neese,F.
     Software update: the ORCA program system, version 4.0
     WIRES Comput. Molec. Sci., 2018 8(1)1-6
     doi.org/10.1002/wcms.1327
  6. Neese,F.; Wennmohs,F.; Becker,U.; Riplinger,C.
     The ORCA quantum chemistry program package
     J. Chem. Phys., 2020 152 Art. No. L224108
     doi.org/10.1063/5.0004608

List of optional additional citations

  1. Neese,F.
     Approximate second-order SCF convergence for spin unrestricted wavefunctions
     Chem. Phys. Lett., 2000 325(1-3)93-98
     doi.org/10.1016/s0009-2614(00)00662-x

Timings for individual modules:

Sum of individual times          ...   208917.121 sec (=3481.952 min)
Startup calculation              ...     5773.433 sec (=  96.224 min)   2.8 %
SCF iterations                   ...    67183.564 sec (=1119.726 min)  32.2 %
Property integrals               ...     2304.416 sec (=  38.407 min)   1.1 %
Property calculations            ...       37.788 sec (=   0.630 min)   0.0 %
CIS module                       ...   122070.371 sec (=2034.506 min)  58.4 %
Geometry relaxation              ...       13.716 sec (=   0.229 min)   0.0 %
Numerical frequency calculation  ...    11533.834 sec (= 192.231 min)   5.5 %
                             ****ORCA TERMINATED NORMALLY****
TOTAL RUN TIME: 2 days 10 hours 28 minutes 46 seconds 867 msec
