
                                 *****************
                                 * O   R   C   A *
                                 *****************

                                            #,                                       
                                            ###                                      
                                            ####                                     
                                            #####                                    
                                            ######                                   
                                           ########,                                 
                                     ,,################,,,,,                         
                               ,,#################################,,                 
                          ,,##########################################,,             
                       ,#########################################, ''#####,          
                    ,#############################################,,   '####,        
                  ,##################################################,,,,####,       
                ,###########''''           ''''###############################       
              ,#####''   ,,,,##########,,,,          '''####'''          '####       
            ,##' ,,,,###########################,,,                        '##       
           ' ,,###''''                  '''############,,,                           
         ,,##''                                '''############,,,,        ,,,,,,###''
      ,#''                                            '''#######################'''  
     '                                                          ''''####''''         
             ,#######,   #######,   ,#######,      ##                                
            ,#'     '#,  ##    ##  ,#'     '#,    #''#        ######   ,####,        
            ##       ##  ##   ,#'  ##            #'  '#       #        #'  '#        
            ##       ##  #######   ##           ,######,      #####,   #    #        
            '#,     ,#'  ##    ##  '#,     ,#' ,#      #,         ##   #,  ,#        
             '#######'   ##     ##  '#######'  #'      '#     #####' # '####'        



                  #######################################################
                  #                        -***-                        #
                  #          Department of theory and spectroscopy      #
                  #    Directorship and core code : Frank Neese         #
                  #        Max Planck Institute fuer Kohlenforschung    #
                  #                Kaiser Wilhelm Platz 1               #
                  #                 D-45470 Muelheim/Ruhr               #
                  #                      Germany                        #
                  #                                                     #
                  #                  All rights reserved                #
                  #                        -***-                        #
                  #######################################################


                         Program Version 5.0.1 -  RELEASE  -


 With contributions from (in alphabetic order):
   Daniel Aravena         : Magnetic Suceptibility
   Michael Atanasov       : Ab Initio Ligand Field Theory (pilot matlab implementation)
   Alexander A. Auer      : GIAO ZORA, VPT2 properties, NMR spectrum
   Ute Becker             : Parallelization
   Giovanni Bistoni       : ED, misc. LED, open-shell LED, HFLD
   Martin Brehm           : Molecular dynamics
   Dmytro Bykov           : SCF Hessian
   Vijay G. Chilkuri      : MRCI spin determinant printing, contributions to CSF-ICE
   Dipayan Datta          : RHF DLPNO-CCSD density
   Achintya Kumar Dutta   : EOM-CC, STEOM-CC
   Dmitry Ganyushin       : Spin-Orbit,Spin-Spin,Magnetic field MRCI
   Miquel Garcia          : C-PCM and meta-GGA Hessian, CC/C-PCM, Gaussian charge scheme
   Yang Guo               : DLPNO-NEVPT2, F12-NEVPT2, CIM, IAO-localization
   Andreas Hansen         : Spin unrestricted coupled pair/coupled cluster methods
   Benjamin Helmich-Paris : MC-RPA, TRAH-SCF, COSX integrals
   Lee Huntington         : MR-EOM, pCC
   Robert Izsak           : Overlap fitted RIJCOSX, COSX-SCS-MP3, EOM
   Marcus Kettner         : VPT2
   Christian Kollmar      : KDIIS, OOCD, Brueckner-CCSD(T), CCSD density, CASPT2, CASPT2-K
   Simone Kossmann        : Meta GGA functionals, TD-DFT gradient, OOMP2, MP2 Hessian
   Martin Krupicka        : Initial AUTO-CI
   Lucas Lang             : DCDCAS
   Marvin Lechner         : AUTO-CI (C++ implementation), FIC-MRCC
   Dagmar Lenk            : GEPOL surface, SMD
   Dimitrios Liakos       : Extrapolation schemes; Compound Job, initial MDCI parallelization
   Dimitrios Manganas     : Further ROCIS development; embedding schemes
   Dimitrios Pantazis     : SARC Basis sets
   Anastasios Papadopoulos: AUTO-CI, single reference methods and gradients
   Taras Petrenko         : DFT Hessian,TD-DFT gradient, ASA, ECA, R-Raman, ABS, FL, XAS/XES, NRVS
   Peter Pinski           : DLPNO-MP2, DLPNO-MP2 Gradient
   Christoph Reimann      : Effective Core Potentials
   Marius Retegan         : Local ZFS, SOC
   Christoph Riplinger    : Optimizer, TS searches, QM/MM, DLPNO-CCSD(T), (RO)-DLPNO pert. Triples
   Tobias Risthaus        : Range-separated hybrids, TD-DFT gradient, RPA, STAB
   Michael Roemelt        : Original ROCIS implementation
   Masaaki Saitow         : Open-shell DLPNO-CCSD energy and density
   Barbara Sandhoefer     : DKH picture change effects
   Avijit Sen             : IP-ROCIS
   Kantharuban Sivalingam : CASSCF convergence, NEVPT2, FIC-MRCI
   Bernardo de Souza      : ESD, SOC TD-DFT
   Georgi Stoychev        : AutoAux, RI-MP2 NMR, DLPNO-MP2 response
   Willem Van den Heuvel  : Paramagnetic NMR
   Boris Wezisla          : Elementary symmetry handling
   Frank Wennmohs         : Technical directorship


 We gratefully acknowledge several colleagues who have allowed us to
 interface, adapt or use parts of their codes:
   Stefan Grimme, W. Hujo, H. Kruse, P. Pracht,  : VdW corrections, initial TS optimization,
                  C. Bannwarth, S. Ehlert          DFT functionals, gCP, sTDA/sTD-DF
   Ed Valeev, F. Pavosevic, A. Kumar             : LibInt (2-el integral package), F12 methods
   Garnet Chan, S. Sharma, J. Yang, R. Olivares  : DMRG
   Ulf Ekstrom                                   : XCFun DFT Library
   Mihaly Kallay                                 : mrcc  (arbitrary order and MRCC methods)
   Jiri Pittner, Ondrej Demel                    : Mk-CCSD
   Frank Weinhold                                : gennbo (NPA and NBO analysis)
   Christopher J. Cramer and Donald G. Truhlar   : smd solvation model
   Lars Goerigk                                  : TD-DFT with DH, B97 family of functionals
   V. Asgeirsson, H. Jonsson                     : NEB implementation
   FAccTs GmbH                                   : IRC, NEB, NEB-TS, DLPNO-Multilevel, CI-OPT
                                                   MM, QMMM, 2- and 3-layer-ONIOM, Crystal-QMMM,
                                                   LR-CPCM, SF, NACMEs, symmetry and pop. for TD-DFT,
                                                   nearIR, NL-DFT gradient (VV10), updates on ESD,
                                                   ML-optimized integration grids
   S Lehtola, MJT Oliveira, MAL Marques          : LibXC Library
   Liviu Ungur et al                             : ANISO software


 Your calculation uses the libint2 library for the computation of 2-el integrals
 For citations please refer to: http://libint.valeyev.net

 Your ORCA version has been built with support for libXC version: 5.1.0
 For citations please refer to: https://tddft.org/programs/libxc/

 This ORCA versions uses:
   CBLAS   interface :  Fast vector & matrix operations
   LAPACKE interface :  Fast linear algebra routines
   SCALAPACK package :  Parallel linear algebra routines
   Shared memory     :  Shared parallel matrices
   BLAS/LAPACK       :  OpenBLAS 0.3.15  USE64BITINT DYNAMIC_ARCH NO_AFFINITY Sandybridge SINGLE_THREADED
        Core in use  :  Sandybridge
   Copyright (c) 2011-2014, The OpenBLAS Project


================================================================================

----- Orbital basis set information -----
Your calculation utilizes the basis: def2-TZVP(-f)
   F. Weigend and R. Ahlrichs, Phys. Chem. Chem. Phys. 7, 3297 (2005).

----- AuxJ basis set information -----
Your calculation utilizes the auxiliary basis: def2/J
   F. Weigend, Phys. Chem. Chem. Phys. 8, 1057 (2006).

----- AuxC basis set information -----
Your calculation utilizes the auxiliary basis: def2-TZVP/C
  H-La, Hf-Rn : A. Hellweg, C. Hattig, S. Hofener and W. Klopper, Theor. Chem. Acc. 117, 587 (2007).
        Ce-Lu : J. Chmela and M. E. Harding, Mol. Phys. (2018).

================================================================================
                                        WARNINGS
                       Please study these warnings very carefully!
================================================================================

INFO   : Checking CIS options ...

WARNING: (CIS/TDDFT): Analytic excited state gradients requested
  ===> : turning on equilibrium dielectric conditions.

WARNING: Analytical Frequencies for this method not available!
  ===> : Switching to Numerical Frequencies!

WARNING: Geometry Optimization
  ===> : Switching off AutoStart
         For restart on a previous wavefunction, please use MOREAD

WARNING: CIS/ROCIS methods need fully converged wavefunctions
  ===> : Setting SCFConvForced true
         You can overwrite this default with %scf ConvForced false 


INFO   : the flag for use of the SHARK integral package has been found!

================================================================================
                                       INPUT FILE
================================================================================
NAME = HBQ-H_ES.inp
|  1> ## avogadro generated ORCA input file 
|  2> # Advanced Mode
|  3> # 
|  4> ! B3LYP/G OPT Freq Def2-TZVP(-f) Def2-TZVP/C Def2/J RIJCOSX TightSCF CPCM(Water) AllPop SOSCF
|  5> %maxcore 3000
|  6> 
|  7> %scf
|  8> 	MaxIter 125
|  9> 	CNVDIIS 1
| 10> 	CNVSOSCF 1 
| 11> end
| 12> 
| 13> %tddft
| 14>     NRoots 1
| 15>     IRoot 1
| 16> end
| 17> 
| 18> * xyz 1 1
| 19>    C       -2.99216       -0.91079        0.23086
| 20>    C       -2.54105       -1.92218       -0.61894
| 21>    C       -1.28231       -1.86837       -1.13606
| 22>    C       -2.17644        0.12908        0.54827
| 23>    C       -0.84971        0.20197        0.07068
| 24>    O       -2.64910        1.09729        1.40037
| 25>    C       -0.42106       -0.81312       -0.80360
| 26>    C        0.89740       -0.77746       -1.37730
| 27>    C        1.75025        0.20797       -1.09545
| 28>    C        0.11318        1.22877        0.40802
| 29>    C        1.37653        1.24280       -0.17600
| 30>    N       -0.15809        2.19518        1.31258
| 31>    C        0.67624        3.15637        1.64971
| 32>    C        1.92506        3.23314        1.07573
| 33>    C        2.26843        2.26633        0.16853
| 34>    C       -3.66331        1.90295        0.99817
| 35>    O       -3.95528        2.00247       -0.15693
| 36>    N       -4.22503        2.54017        2.01667
| 37>    C       -5.20649        3.57992        1.76061
| 38>    C       -3.85193        2.34683        3.40965
| 39>    H       -3.47834        1.35148        3.57626
| 40>    H       -4.73578        2.48926        4.01537
| 41>    H       -3.10255        3.06839        3.71594
| 42>    H       -5.34877        3.70235        0.70160
| 43>    H       -4.86307        4.51613        2.18478
| 44>    H       -6.15082        3.31600        2.22057
| 45>    H       -0.93056       -2.63339       -1.80097
| 46>    H       -3.98748       -0.93832        0.62991
| 47>    H       -3.19706       -2.73498       -0.86489
| 48>    H        1.17290       -1.56661       -2.05005
| 49>    H        2.73021        0.24311       -1.53075
| 50>    H        0.32498        3.85086        2.38573
| 51>    H        2.59513        4.02079        1.35095
| 52>    H        3.23860        2.27858       -0.29126
| 53>    H       -1.04145        2.16781        1.77305
| 54> 
| 55> 
| 56> *
| 57> 
| 58> 
| 59>                          ****END OF INPUT****
================================================================================

                       *****************************
                       * Geometry Optimization Run *
                       *****************************

Geometry optimization settings:
Update method            Update   .... BFGS
Choice of coordinates    CoordSys .... Z-matrix Internals
Initial Hessian          InHess   .... Almoef's Model

Convergence Tolerances:
Energy Change            TolE     ....  5.0000e-06 Eh
Max. Gradient            TolMAXG  ....  3.0000e-04 Eh/bohr
RMS Gradient             TolRMSG  ....  1.0000e-04 Eh/bohr
Max. Displacement        TolMAXD  ....  4.0000e-03 bohr
RMS Displacement         TolRMSD  ....  2.0000e-03 bohr
Strict Convergence                ....  False
------------------------------------------------------------------------------
                        ORCA OPTIMIZATION COORDINATE SETUP
------------------------------------------------------------------------------

The optimization will be done in new redundant internal coordinates
Making redundant internal coordinates   ...  (new redundants) done
Evaluating the initial hessian          ...  (Almloef) done
Evaluating the coordinates              ...  done
Calculating the B-matrix                .... done
Calculating the G-matrix                .... done
Diagonalizing the G-matrix              .... done
Small eigenvalue found = 3.318e-03
Small eigenvalue found = 6.778e-03
Small eigenvalue found = 1.342e-02
Small eigenvalue found = 2.358e-02
The first mode is                       ....   83
The number of degrees of freedom        ....   99

    -----------------------------------------------------------------
                    Redundant Internal Coordinates


    -----------------------------------------------------------------
         Definition                    Initial Value    Approx d2E/dq
    -----------------------------------------------------------------
      1. B(C   1,C   0)                  1.3959         0.611373   
      2. B(C   2,C   1)                  1.3619         0.692774   
      3. B(C   3,C   0)                  1.3592         0.699595   
      4. B(C   4,C   3)                  1.4120         0.576382   
      5. B(O   5,C   3)                  1.3736         0.594240   
      6. B(C   6,C   4)                  1.4066         0.587841   
      7. B(C   6,C   2)                  1.4021         0.597672   
      8. B(C   7,C   6)                  1.4383         0.523191   
      9. B(C   8,C   7)                  1.3334         0.769298   
     10. B(C   9,C   4)                  1.4475         0.505815   
     11. B(C  10,C   9)                  1.3919         0.620497   
     12. B(C  10,C   8)                  1.4339         0.531836   
     13. B(N  11,C   9)                  1.3512         0.645305   
     14. B(C  12,N  11)                  1.3167         0.732573   
     15. B(C  13,C  12)                  1.3766         0.656436   
     16. B(C  14,C  13)                  1.3695         0.673571   
     17. B(C  14,C  10)                  1.4006         0.600840   
     18. B(C  15,O   5)                  1.3563         0.633411   
     19. B(O  16,C  15)                  1.1956         1.143045   
     20. B(N  17,C  15)                  1.3262         0.707287   
     21. B(C  18,N  17)                  1.4526         0.444709   
     22. B(C  19,N  17)                  1.4550         0.440756   
     23. B(H  20,C  19)                  1.0761         0.378927   
     24. B(H  21,C  19)                  1.0809         0.372323   
     25. B(H  22,C  19)                  1.0845         0.367517   
     26. B(H  23,C  18)                  1.0755         0.379779   
     27. B(H  24,C  18)                  1.0837         0.368568   
     28. B(H  25,C  18)                  1.0830         0.369426   
     29. B(H  26,C   2)                  1.0729         0.383463   
     30. B(H  27,C   0)                  1.0727         0.383745   
     31. B(H  28,C   1)                  1.0731         0.383204   
     32. B(H  29,C   7)                  1.0730         0.383357   
     33. B(H  30,C   8)                  1.0729         0.383494   
     34. B(H  31,C  12)                  1.0712         0.385878   
     35. B(H  32,C  13)                  1.0701         0.387399   
     36. B(H  33,C  14)                  1.0737         0.382351   
     37. B(H  34,N  11)                  0.9965         0.454630   
     38. A(C   1,C   0,H  27)          120.5129         0.355887   
     39. A(C   1,C   0,C   3)          120.1673         0.442507   
     40. A(C   3,C   0,H  27)          119.3153         0.364155   
     41. A(C   0,C   1,H  28)          119.3913         0.355802   
     42. A(C   0,C   1,C   2)          120.0807         0.441723   
     43. A(C   2,C   1,H  28)          120.5264         0.363458   
     44. A(C   1,C   2,C   6)          120.4937         0.439919   
     45. A(C   1,C   2,H  26)          120.6751         0.363500   
     46. A(C   6,C   2,H  26)          118.8308         0.354478   
     47. A(C   4,C   3,O   5)          119.7856         0.422405   
     48. A(C   0,C   3,C   4)          121.6292         0.437822   
     49. A(C   0,C   3,O   5)          118.5287         0.437349   
     50. A(C   3,C   4,C   9)          125.6510         0.413133   
     51. A(C   6,C   4,C   9)          117.0041         0.414580   
     52. A(C   3,C   4,C   6)          117.3441         0.424348   
     53. A(C   3,O   5,C  15)          119.4754         0.426798   
     54. A(C   2,C   6,C   7)          119.1541         0.418313   
     55. A(C   4,C   6,C   7)          120.6224         0.417079   
     56. A(C   2,C   6,C   4)          120.2210         0.427112   
     57. A(C   8,C   7,H  29)          120.7884         0.370070   
     58. A(C   6,C   7,H  29)          117.8545         0.346583   
     59. A(C   6,C   7,C   8)          121.3546         0.437676   
     60. A(C   7,C   8,H  30)          121.5118         0.370093   
     61. A(C  10,C   8,H  30)          118.3338         0.347561   
     62. A(C   7,C   8,C  10)          120.1471         0.438972   
     63. A(C  10,C   9,N  11)          117.1232         0.434402   
     64. A(C   4,C   9,C  10)          120.8735         0.418589   
     65. A(C   4,C   9,N  11)          121.9928         0.418790   
     66. A(C   8,C  10,C  14)          121.2760         0.419932   
     67. A(C   9,C  10,C  14)          118.8248         0.431685   
     68. A(C   8,C  10,C   9)          119.8914         0.422352   
     69. A(C   9,N  11,H  34)          117.8814         0.364182   
     70. A(C   9,N  11,C  12)          124.4933         0.444679   
     71. A(C  12,N  11,H  34)          117.6087         0.372197   
     72. A(N  11,C  12,H  31)          116.1956         0.365097   
     73. A(C  13,C  12,H  31)          123.2188         0.360559   
     74. A(N  11,C  12,C  13)          120.5847         0.449021   
     75. A(C  12,C  13,H  32)          120.1242         0.360801   
     76. A(C  12,C  13,C  14)          117.6643         0.445174   
     77. A(C  14,C  13,H  32)          122.2067         0.362390   
     78. A(C  10,C  14,H  33)          118.5803         0.354621   
     79. A(C  10,C  14,C  13)          121.2757         0.438110   
     80. A(C  13,C  14,H  33)          120.1433         0.361580   
     81. A(O  16,C  15,N  17)          126.7648         0.490610   
     82. A(O   5,C  15,N  17)          111.9870         0.440379   
     83. A(O   5,C  15,O  16)          121.2365         0.480706   
     84. A(C  18,N  17,C  19)          115.9223         0.380420   
     85. A(C  15,N  17,C  19)          124.2482         0.412691   
     86. A(C  15,N  17,C  18)          119.6516         0.413346   
     87. A(H  24,C  18,H  25)          108.6997         0.293082   
     88. A(H  23,C  18,H  25)          109.3033         0.294470   
     89. A(N  17,C  18,H  25)          109.8674         0.333183   
     90. A(H  23,C  18,H  24)          109.2076         0.294362   
     91. A(N  17,C  18,H  24)          109.5894         0.333054   
     92. A(N  17,C  18,H  23)          110.1480         0.334715   
     93. A(H  21,C  19,H  22)          108.6082         0.293311   
     94. A(H  20,C  19,H  22)          109.3781         0.294125   
     95. A(N  17,C  19,H  22)          111.0502         0.332404   
     96. A(H  20,C  19,H  21)          108.6017         0.294730   
     97. A(N  17,C  19,H  21)          108.0176         0.333121   
     98. A(N  17,C  19,H  20)          111.1097         0.334094   
     99. D(H  28,C   1,C   0,H  27)     -0.4949         0.025821   
    100. D(C   2,C   1,C   0,C   3)     -0.1771         0.025821   
    101. D(C   2,C   1,C   0,H  27)    179.0449         0.025821   
    102. D(H  28,C   1,C   0,C   3)   -179.7168         0.025821   
    103. D(C   6,C   2,C   1,C   0)      1.1109         0.033743   
    104. D(C   6,C   2,C   1,H  28)   -179.3547         0.033743   
    105. D(H  26,C   2,C   1,H  28)      0.3915         0.033743   
    106. D(H  26,C   2,C   1,C   0)   -179.1429         0.033743   
    107. D(O   5,C   3,C   0,H  27)      1.5492         0.034467   
    108. D(O   5,C   3,C   0,C   1)   -179.2195         0.034467   
    109. D(C   4,C   3,C   0,H  27)    178.8079         0.034467   
    110. D(C   4,C   3,C   0,C   1)     -1.9608         0.034467   
    111. D(C   6,C   4,C   3,O   5)   -179.7296         0.022811   
    112. D(C   6,C   4,C   3,C   0)      3.0454         0.022811   
    113. D(C   9,C   4,C   3,O   5)      0.6074         0.022811   
    114. D(C   9,C   4,C   3,C   0)   -176.6176         0.022811   
    115. D(C  15,O   5,C   3,C   4)    115.6664         0.025758   
    116. D(C  15,O   5,C   3,C   0)    -67.0229         0.025758   
    117. D(C   7,C   6,C   4,C   9)     -2.9694         0.023772   
    118. D(C   7,C   6,C   4,C   3)    177.3380         0.023772   
    119. D(C   2,C   6,C   4,C   9)    177.6160         0.023772   
    120. D(C   7,C   6,C   2,H  26)      0.8923         0.024615   
    121. D(C   2,C   6,C   4,C   3)     -2.0766         0.023772   
    122. D(C   7,C   6,C   2,C   1)   -179.3569         0.024615   
    123. D(C   4,C   6,C   2,H  26)   -179.6846         0.024615   
    124. D(C   4,C   6,C   2,C   1)      0.0662         0.024615   
    125. D(H  29,C   7,C   6,C   4)   -179.0965         0.018673   
    126. D(H  29,C   7,C   6,C   2)      0.3243         0.018673   
    127. D(C   8,C   7,C   6,C   4)      0.3238         0.018673   
    128. D(C   8,C   7,C   6,C   2)    179.7445         0.018673   
    129. D(C  10,C   8,C   7,C   6)      1.7136         0.042418   
    130. D(H  30,C   8,C   7,H  29)      0.1192         0.042418   
    131. D(H  30,C   8,C   7,C   6)   -179.2841         0.042418   
    132. D(C  10,C   8,C   7,H  29)   -178.8830         0.042418   
    133. D(N  11,C   9,C   4,C   6)   -175.0790         0.017432   
    134. D(N  11,C   9,C   4,C   3)      4.5850         0.017432   
    135. D(C  10,C   9,C   4,C   6)      3.7094         0.017432   
    136. D(C  10,C   9,C   4,C   3)   -176.6266         0.017432   
    137. D(C  14,C  10,C   9,N  11)     -1.9766         0.026645   
    138. D(C  14,C  10,C   9,C   4)    179.1779         0.026645   
    139. D(C   8,C  10,C   9,N  11)    177.0184         0.026645   
    140. D(C   8,C  10,C   9,C   4)     -1.8271         0.026645   
    141. D(C  14,C  10,C   8,H  30)     -1.0172         0.019310   
    142. D(C  14,C  10,C   8,C   7)    178.0164         0.019310   
    143. D(C   9,C  10,C   8,H  30)   -179.9870         0.019310   
    144. D(C   9,C  10,C   8,C   7)     -0.9534         0.019310   
    145. D(H  34,N  11,C   9,C  10)   -176.8467         0.033941   
    146. D(H  34,N  11,C   9,C   4)      1.9848         0.033941   
    147. D(C  12,N  11,C   9,C  10)      1.6331         0.033941   
    148. D(C  12,N  11,C   9,C   4)   -179.5353         0.033941   
    149. D(H  31,C  12,N  11,H  34)     -1.2415         0.044833   
    150. D(H  31,C  12,N  11,C   9)   -179.7252         0.044833   
    151. D(C  13,C  12,N  11,H  34)    178.4343         0.044833   
    152. D(C  13,C  12,N  11,C   9)     -0.0493         0.044833   
    153. D(H  32,C  13,C  12,H  31)     -0.7068         0.030045   
    154. D(H  32,C  13,C  12,N  11)    179.6408         0.030045   
    155. D(C  14,C  13,C  12,H  31)    178.5168         0.030045   
    156. D(C  14,C  13,C  12,N  11)     -1.1356         0.030045   
    157. D(C  10,C  14,C  13,C  12)      0.6953         0.031756   
    158. D(H  33,C  14,C  10,C   9)   -179.4349         0.024891   
    159. D(H  33,C  14,C  10,C   8)      1.5846         0.024891   
    160. D(C  13,C  14,C  10,C   9)      0.8712         0.024891   
    161. D(C  13,C  14,C  10,C   8)   -178.1093         0.024891   
    162. D(H  33,C  14,C  13,H  32)      0.2125         0.031756   
    163. D(H  33,C  14,C  13,C  12)   -178.9939         0.031756   
    164. D(C  10,C  14,C  13,H  32)    179.9016         0.031756   
    165. D(N  17,C  15,O   5,C   3)    164.1482         0.029530   
    166. D(O  16,C  15,O   5,C   3)    -17.0159         0.029530   
    167. D(C  19,N  17,C  15,O  16)    178.0572         0.041484   
    168. D(C  19,N  17,C  15,O   5)     -3.1854         0.041484   
    169. D(C  18,N  17,C  15,O  16)     -6.9945         0.041484   
    170. D(C  18,N  17,C  15,O   5)    171.7629         0.041484   
    171. D(H  25,C  18,N  17,C  19)    -64.5149         0.016866   
    172. D(H  25,C  18,N  17,C  15)    120.1271         0.016866   
    173. D(H  24,C  18,N  17,C  19)     54.8545         0.016866   
    174. D(H  24,C  18,N  17,C  15)   -120.5036         0.016866   
    175. D(H  23,C  18,N  17,C  19)    175.0224         0.016866   
    176. D(H  23,C  18,N  17,C  15)     -0.3357         0.016866   
    177. D(H  22,C  19,N  17,C  18)    -82.0152         0.016566   
    178. D(H  22,C  19,N  17,C  15)     93.1039         0.016566   
    179. D(H  21,C  19,N  17,C  18)     36.9793         0.016566   
    180. D(H  21,C  19,N  17,C  15)   -147.9016         0.016566   
    181. D(H  20,C  19,N  17,C  18)    156.0007         0.016566   
    182. D(H  20,C  19,N  17,C  15)    -28.8802         0.016566   
    -----------------------------------------------------------------

Number of atoms                         .... 35
Number of degrees of freedom            .... 182

         *************************************************************
         *                GEOMETRY OPTIMIZATION CYCLE   1            *
         *************************************************************
---------------------------------
CARTESIAN COORDINATES (ANGSTROEM)
---------------------------------
  C     -2.992160   -0.910790    0.230860
  C     -2.541050   -1.922180   -0.618940
  C     -1.282310   -1.868370   -1.136060
  C     -2.176440    0.129080    0.548270
  C     -0.849710    0.201970    0.070680
  O     -2.649100    1.097290    1.400370
  C     -0.421060   -0.813120   -0.803600
  C      0.897400   -0.777460   -1.377300
  C      1.750250    0.207970   -1.095450
  C      0.113180    1.228770    0.408020
  C      1.376530    1.242800   -0.176000
  N     -0.158090    2.195180    1.312580
  C      0.676240    3.156370    1.649710
  C      1.925060    3.233140    1.075730
  C      2.268430    2.266330    0.168530
  C     -3.663310    1.902950    0.998170
  O     -3.955280    2.002470   -0.156930
  N     -4.225030    2.540170    2.016670
  C     -5.206490    3.579920    1.760610
  C     -3.851930    2.346830    3.409650
  H     -3.478340    1.351480    3.576260
  H     -4.735780    2.489260    4.015370
  H     -3.102550    3.068390    3.715940
  H     -5.348770    3.702350    0.701600
  H     -4.863070    4.516130    2.184780
  H     -6.150820    3.316000    2.220570
  H     -0.930560   -2.633390   -1.800970
  H     -3.987480   -0.938320    0.629910
  H     -3.197060   -2.734980   -0.864890
  H      1.172900   -1.566610   -2.050050
  H      2.730210    0.243110   -1.530750
  H      0.324980    3.850860    2.385730
  H      2.595130    4.020790    1.350950
  H      3.238600    2.278580   -0.291260
  H     -1.041450    2.167810    1.773050

----------------------------
CARTESIAN COORDINATES (A.U.)
----------------------------
  NO LB      ZA    FRAG     MASS         X           Y           Z
   0 C     6.0000    0    12.011   -5.654363   -1.721144    0.436262
   1 C     6.0000    0    12.011   -4.801889   -3.632394   -1.169627
   2 C     6.0000    0    12.011   -2.423215   -3.530708   -2.146842
   3 C     6.0000    0    12.011   -4.112876    0.243926    1.036080
   4 C     6.0000    0    12.011   -1.605719    0.381668    0.133566
   5 O     8.0000    0    15.999   -5.006074    2.073578    2.646316
   6 C     6.0000    0    12.011   -0.795688   -1.536574   -1.518584
   7 C     6.0000    0    12.011    1.695840   -1.469186   -2.602720
   8 C     6.0000    0    12.011    3.307493    0.393006   -2.070100
   9 C     6.0000    0    12.011    0.213879    2.322039    0.771046
  10 C     6.0000    0    12.011    2.601265    2.348552   -0.332592
  11 N     7.0000    0    14.007   -0.298747    4.148289    2.480417
  12 C     6.0000    0    12.011    1.277908    5.964675    3.117500
  13 C     6.0000    0    12.011    3.637836    6.109749    2.032835
  14 C     6.0000    0    12.011    4.286711    4.282743    0.318476
  15 C     6.0000    0    12.011   -6.922653    3.596054    1.886268
  16 O     8.0000    0    15.999   -7.474396    3.784120   -0.296555
  17 N     7.0000    0    14.007   -7.984150    4.800226    3.810954
  18 C     6.0000    0    12.011   -9.838840    6.765068    3.327071
  19 C     6.0000    0    12.011   -7.279093    4.434866    6.443305
  20 H     1.0000    0     1.008   -6.573110    2.553927    6.758152
  21 H     1.0000    0     1.008   -8.949327    4.704020    7.587950
  22 H     1.0000    0     1.008   -5.862970    5.798417    7.022109
  23 H     1.0000    0     1.008  -10.107710    6.996428    1.325832
  24 H     1.0000    0     1.008   -9.189870    8.534249    4.128636
  25 H     1.0000    0     1.008  -11.623365    6.266332    4.196269
  26 H     1.0000    0     1.008   -1.758504   -4.976386   -3.403340
  27 H     1.0000    0     1.008   -7.535245   -1.773168    1.190357
  28 H     1.0000    0     1.008   -6.041568   -5.168363   -1.634405
  29 H     1.0000    0     1.008    2.216460   -2.960464   -3.874033
  30 H     1.0000    0     1.008    5.159349    0.459411   -2.892698
  31 H     1.0000    0     1.008    0.614123    7.277071    4.508376
  32 H     1.0000    0     1.008    4.904085    7.598192    2.552926
  33 H     1.0000    0     1.008    6.120067    4.305892   -0.550402
  34 H     1.0000    0     1.008   -1.968055    4.096567    3.350579

--------------------------------
INTERNAL COORDINATES (ANGSTROEM)
--------------------------------
 C      0   0   0     0.000000000000     0.00000000     0.00000000
 C      1   0   0     1.395911889841     0.00000000     0.00000000
 C      2   1   0     1.361886558455   120.08073879     0.00000000
 C      1   2   3     1.359219571445   120.16731588   359.82286230
 C      4   1   2     1.411955258887   121.62920781   358.03921542
 O      4   1   2     1.373649332872   118.52865557   180.78047335
 C      3   2   1     1.402081943611   120.49367981     1.11091046
 C      7   3   2     1.438311543860   119.15408051   180.64308067
 C      8   7   3     1.333365977480   121.35456739   179.74451139
 C      5   4   1     1.447506016464   125.65095242   183.38243162
 C     10   5   4     1.391879816579   120.87349915   183.37339174
 N     10   5   4     1.351208531131   121.99278372     4.58503845
 C     12  10   5     1.316681207392   124.49334706   180.46467829
 C     13  12  10     1.376552965091   120.58474372   359.95067554
 C     14  13  12     1.369538744614   117.66430507   358.86444358
 C      6   4   1     1.356272391410   119.47540447   292.97708448
 O     16   6   4     1.195577986289   121.23649808   342.98406109
 N     16   6   4     1.326243166542   111.98699814   164.14822381
 C     18  16   6     1.452553103229   119.65164371   171.76291440
 C     18  16   6     1.454983589598   124.24816719   356.81460208
 H     20  18  16     1.076127317142   111.10971438   331.11983061
 H     20  18  16     1.080913431224   108.01760152   212.09839976
 H     20  18  16     1.084450451657   111.05016520    93.10392441
 H     19  18  16     1.075516100949   110.14798275   359.66433960
 H     19  18  16     1.083672759370   109.58943960   239.49643054
 H     19  18  16     1.083040219429   109.86738519   120.12708388
 H      3   2   1     1.072888144682   120.67508295   180.85707138
 H      1   2   3     1.072688540910   120.51291500   179.04485204
 H      2   1   3     1.073072393923   119.39128853   180.46029293
 H      8   7   3     1.072963436003   117.85446978     0.32425975
 H      9   8   7     1.072866492719   121.51179235   180.71587156
 H     13  12  10     1.071179437863   116.19564661   180.27481348
 H     14  13  12     1.070108581313   120.12418844   179.64082427
 H     15  14  13     1.073679065410   120.14330670   181.00612267
 H     12  10   5     0.996547353315   117.88138907     1.98482737

---------------------------
INTERNAL COORDINATES (A.U.)
---------------------------
 C      0   0   0     0.000000000000     0.00000000     0.00000000
 C      1   0   0     2.637891178884     0.00000000     0.00000000
 C      2   1   0     2.573592620948   120.08073879     0.00000000
 C      1   2   3     2.568552745897   120.16731588   359.82286230
 C      4   1   2     2.668208752647   121.62920781   358.03921542
 O      4   1   2     2.595821043172   118.52865557   180.78047335
 C      3   2   1     2.649550890741   120.49367981     1.11091046
 C      7   3   2     2.718014913152   119.15408051   180.64308067
 C      8   7   3     2.519696533725   121.35456739   179.74451139
 C      5   4   1     2.735389948321   125.65095242   183.38243162
 C     10   5   4     2.630271664667   120.87349915   183.37339174
 N     10   5   4     2.553414073655   121.99278372     4.58503845
 C     12  10   5     2.488166887652   124.49334706   180.46467829
 C     13  12  10     2.601308112859   120.58474372   359.95067554
 C     14  13  12     2.588053157116   117.66430507   358.86444358
 C      6   4   1     2.562983382763   119.47540447   292.97708448
 O     16   6   4     2.259314965832   121.23649808   342.98406109
 N     16   6   4     2.506236371749   111.98699814   164.14822381
 C     18  16   6     2.744927560080   119.65164371   171.76291440
 C     18  16   6     2.749520513690   124.24816719   356.81460208
 H     20  18  16     2.033585914630   111.10971438   331.11983061
 H     20  18  16     2.042630359490   108.01760152   212.09839976
 H     20  18  16     2.049314359440   111.05016520    93.10392441
 H     19  18  16     2.032430883416   110.14798275   359.66433960
 H     19  18  16     2.047844734000   109.58943960   239.49643054
 H     19  18  16     2.046649406742   109.86738519   120.12708388
 H      3   2   1     2.027464765781   120.67508295   180.85707138
 H      1   2   3     2.027087569316   120.51291500   179.04485204
 H      2   1   3     2.027812946386   119.39128853   180.46029293
 H      8   7   3     2.027607045757   117.85446978     0.32425975
 H      9   8   7     2.027423849500   121.51179235   180.71587156
 H     13  12  10     2.024235777848   116.19564661   180.27481348
 H     14  13  12     2.022212152241   120.12418844   179.64082427
 H     15  14  13     2.028959389350   120.14330670   181.00612267
 H     12  10   5     1.883201577250   117.88138907     1.98482737

---------------------
BASIS SET INFORMATION
---------------------
There are 4 groups of distinct atoms

 Group   1 Type C   : 11s6p2d contracted to 5s3p2d pattern {62111/411/11}
 Group   2 Type O   : 11s6p2d contracted to 5s3p2d pattern {62111/411/11}
 Group   3 Type N   : 11s6p2d contracted to 5s3p2d pattern {62111/411/11}
 Group   4 Type H   : 5s1p contracted to 3s1p pattern {311/1}

Atom   0C    basis set group =>   1
Atom   1C    basis set group =>   1
Atom   2C    basis set group =>   1
Atom   3C    basis set group =>   1
Atom   4C    basis set group =>   1
Atom   5O    basis set group =>   2
Atom   6C    basis set group =>   1
Atom   7C    basis set group =>   1
Atom   8C    basis set group =>   1
Atom   9C    basis set group =>   1
Atom  10C    basis set group =>   1
Atom  11N    basis set group =>   3
Atom  12C    basis set group =>   1
Atom  13C    basis set group =>   1
Atom  14C    basis set group =>   1
Atom  15C    basis set group =>   1
Atom  16O    basis set group =>   2
Atom  17N    basis set group =>   3
Atom  18C    basis set group =>   1
Atom  19C    basis set group =>   1
Atom  20H    basis set group =>   4
Atom  21H    basis set group =>   4
Atom  22H    basis set group =>   4
Atom  23H    basis set group =>   4
Atom  24H    basis set group =>   4
Atom  25H    basis set group =>   4
Atom  26H    basis set group =>   4
Atom  27H    basis set group =>   4
Atom  28H    basis set group =>   4
Atom  29H    basis set group =>   4
Atom  30H    basis set group =>   4
Atom  31H    basis set group =>   4
Atom  32H    basis set group =>   4
Atom  33H    basis set group =>   4
Atom  34H    basis set group =>   4
---------------------------------
AUXILIARY/J BASIS SET INFORMATION
---------------------------------
There are 4 groups of distinct atoms

 Group   1 Type C   : 12s5p4d2f1g contracted to 6s4p3d1f1g pattern {711111/2111/211/2/1}
 Group   2 Type O   : 12s5p4d2f1g contracted to 6s4p3d1f1g pattern {711111/2111/211/2/1}
 Group   3 Type N   : 12s5p4d2f1g contracted to 6s4p3d1f1g pattern {711111/2111/211/2/1}
 Group   4 Type H   : 5s2p1d contracted to 3s1p1d pattern {311/2/1}

Atom   0C    basis set group =>   1
Atom   1C    basis set group =>   1
Atom   2C    basis set group =>   1
Atom   3C    basis set group =>   1
Atom   4C    basis set group =>   1
Atom   5O    basis set group =>   2
Atom   6C    basis set group =>   1
Atom   7C    basis set group =>   1
Atom   8C    basis set group =>   1
Atom   9C    basis set group =>   1
Atom  10C    basis set group =>   1
Atom  11N    basis set group =>   3
Atom  12C    basis set group =>   1
Atom  13C    basis set group =>   1
Atom  14C    basis set group =>   1
Atom  15C    basis set group =>   1
Atom  16O    basis set group =>   2
Atom  17N    basis set group =>   3
Atom  18C    basis set group =>   1
Atom  19C    basis set group =>   1
Atom  20H    basis set group =>   4
Atom  21H    basis set group =>   4
Atom  22H    basis set group =>   4
Atom  23H    basis set group =>   4
Atom  24H    basis set group =>   4
Atom  25H    basis set group =>   4
Atom  26H    basis set group =>   4
Atom  27H    basis set group =>   4
Atom  28H    basis set group =>   4
Atom  29H    basis set group =>   4
Atom  30H    basis set group =>   4
Atom  31H    basis set group =>   4
Atom  32H    basis set group =>   4
Atom  33H    basis set group =>   4
Atom  34H    basis set group =>   4
---------------------------------
AUXILIARY/C BASIS SET INFORMATION
---------------------------------
There are 4 groups of distinct atoms

 Group   1 Type C   : 8s6p5d3f1g contracted to 8s6p4d3f1g pattern {11111111/111111/2111/111/1}
 Group   2 Type O   : 8s6p5d3f1g contracted to 8s6p4d3f1g pattern {11111111/111111/2111/111/1}
 Group   3 Type N   : 8s6p5d3f1g contracted to 8s6p4d3f1g pattern {11111111/111111/2111/111/1}
 Group   4 Type H   : 4s3p2d contracted to 4s2p1d pattern {1111/21/2}

Atom   0C    basis set group =>   1
Atom   1C    basis set group =>   1
Atom   2C    basis set group =>   1
Atom   3C    basis set group =>   1
Atom   4C    basis set group =>   1
Atom   5O    basis set group =>   2
Atom   6C    basis set group =>   1
Atom   7C    basis set group =>   1
Atom   8C    basis set group =>   1
Atom   9C    basis set group =>   1
Atom  10C    basis set group =>   1
Atom  11N    basis set group =>   3
Atom  12C    basis set group =>   1
Atom  13C    basis set group =>   1
Atom  14C    basis set group =>   1
Atom  15C    basis set group =>   1
Atom  16O    basis set group =>   2
Atom  17N    basis set group =>   3
Atom  18C    basis set group =>   1
Atom  19C    basis set group =>   1
Atom  20H    basis set group =>   4
Atom  21H    basis set group =>   4
Atom  22H    basis set group =>   4
Atom  23H    basis set group =>   4
Atom  24H    basis set group =>   4
Atom  25H    basis set group =>   4
Atom  26H    basis set group =>   4
Atom  27H    basis set group =>   4
Atom  28H    basis set group =>   4
Atom  29H    basis set group =>   4
Atom  30H    basis set group =>   4
Atom  31H    basis set group =>   4
Atom  32H    basis set group =>   4
Atom  33H    basis set group =>   4
Atom  34H    basis set group =>   4
------------------------------------------------------------------------------
                           ORCA GTO INTEGRAL CALCULATION
                           -- RI-GTO INTEGRALS CHOSEN --
------------------------------------------------------------------------------
------------------------------------------------------------------------------
                   ___                                                        
                  /   \      - P O W E R E D   B Y -                         
                 /     \                                                     
                 |  |  |   _    _      __       _____    __    __             
                 |  |  |  | |  | |    /  \     |  _  \  |  |  /  |          
                  \  \/   | |  | |   /    \    | | | |  |  | /  /          
                 / \  \   | |__| |  /  /\  \   | |_| |  |  |/  /          
                |  |  |   |  __  | /  /__\  \  |    /   |      \           
                |  |  |   | |  | | |   __   |  |    \   |  |\   \          
                \     /   | |  | | |  |  |  |  | |\  \  |  | \   \       
                 \___/    |_|  |_| |__|  |__|  |_| \__\ |__|  \__/        
                                                                              
                      - O R C A' S   B I G   F R I E N D -                    
                                      &                                       
                       - I N T E G R A L  F E E D E R -                       
                                                                              
 v1 FN, 2020, v2 2021                                                         
------------------------------------------------------------------------------


Reading SHARK input file HBQ-H_ES.SHARKINP.tmp ... ok
----------------------
SHARK INTEGRAL PACKAGE
----------------------

Number of atoms                             ...     35
Number of basis functions                   ...    570
Number of shells                            ...    260
Maximum angular momentum                    ...      2
Integral batch strategy                     ... SHARK/LIBINT Hybrid
RI-J (if used) integral strategy            ... SPLIT-RIJ (Revised 2003 algorithm where possible)
Printlevel                                  ...      1
Contraction scheme used                     ... SEGMENTED contraction
Coulomb Range Separation                    ... NOT USED
Exchange Range Separation                   ... NOT USED
Finite Nucleus Model                        ... NOT USED
Auxiliary Coulomb fitting basis             ... AVAILABLE
   # of basis functions in Aux-J            ...   1145
   # of shells in Aux-J                     ...    375
   Maximum angular momentum in Aux-J        ...      4
Auxiliary J/K fitting basis                 ... NOT available
Auxiliary Correlation fitting basis         ... AVAILABLE
   # of basis functions in Aux-C            ...   1745
   # of shells in Aux-C                     ...    545
   Maximum angular momentum in Aux-C        ...      4
Auxiliary 'external' fitting basis          ... NOT available
Integral threshold                          ...     2.500000e-11
Primitive cut-off                           ...     2.500000e-12
Primitive pair pre-selection threshold      ...     2.500000e-12

Calculating pre-screening integrals         ... done (  0.3 sec) Dimension = 260
Organizing shell pair data                  ... done (  0.9 sec)
Shell pair information
Total number of shell pairs                 ...     33930
Shell pairs after pre-screening             ...     25615
Total number of primitive shell pairs       ...    111170
Primitive shell pairs kept                  ...     55733
          la=0 lb=0:   7541 shell pairs
          la=1 lb=0:   8424 shell pairs
          la=1 lb=1:   2351 shell pairs
          la=2 lb=0:   4264 shell pairs
          la=2 lb=1:   2397 shell pairs
          la=2 lb=2:    638 shell pairs

Calculating one electron integrals          ... done (  0.3 sec)
Calculating RI/J V-Matrix + Cholesky decomp.... done (  0.7 sec)
Calculating RI/C V-Matrix + Cholesky decomp.... done (  1.4 sec)
Calculating Nuclear repulsion               ... done (  0.0 sec) ENN=   1526.628580518664 Eh

SHARK setup successfully completed in   4.0 seconds

Maximum memory used throughout the entire GTOINT-calculation: 192.8 MB
-------------------------------------------------------------------------------
                                 ORCA SCF
-------------------------------------------------------------------------------

------------
SCF SETTINGS
------------
Hamiltonian:
 Density Functional     Method          .... DFT(GTOs)
 Exchange Functional    Exchange        .... B88
   X-Alpha parameter    XAlpha          ....  0.666667
   Becke's b parameter  XBeta           ....  0.004200
 Correlation Functional Correlation     .... LYP
 LDA part of GGA corr.  LDAOpt          .... VWN-3
 Gradients option       PostSCFGGA      .... off
 Hybrid DFT is turned on
   Fraction HF Exchange ScalHFX         ....  0.200000
   Scaling of DF-GGA-X  ScalDFX         ....  0.720000
   Scaling of DF-GGA-C  ScalDFC         ....  0.810000
   Scaling of DF-LDA-C  ScalLDAC        ....  1.000000
   Perturbative correction              ....  0.000000
   Density functional embedding theory  .... OFF
   NL short-range parameter             ....  4.800000
 RI-approximation to the Coulomb term is turned on
   Number of AuxJ basis functions       .... 1145
   RIJ-COSX (HFX calculated with COS-X)).... on


General Settings:
 Integral files         IntName         .... HBQ-H_ES
 Hartree-Fock type      HFTyp           .... RHF
 Total Charge           Charge          ....    1
 Multiplicity           Mult            ....    1
 Number of Electrons    NEL             ....  140
 Basis Dimension        Dim             ....  570
 Nuclear Repulsion      ENuc            ....   1526.6285805187 Eh

Convergence Acceleration:
 DIIS                   CNVDIIS         .... on
   Start iteration      DIISMaxIt       ....    12
   Startup error        DIISStart       ....  0.200000
   # of expansion vecs  DIISMaxEq       ....     5
   Bias factor          DIISBfac        ....   1.050
   Max. coefficient     DIISMaxC        ....  10.000
 Trust-Rad. Augm. Hess. CNVTRAH         .... auto
   Auto Start mean grad. ratio tolernc. ....  1.125000
   Auto Start start iteration           ....    20
   Auto Start num. interpolation iter.  ....    10
   Max. Number of Micro iterations      ....    16
   Max. Number of Macro iterations      .... Maxiter - #DIIS iter
   Number of Davidson start vectors     ....     2
   Converg. threshold I  (grad. norm)   ....   1.000e-05
   Converg. threshold II (energy diff.) ....   1.000e-08
   Grad. Scal. Fac. for Micro threshold ....   0.100
   Minimum threshold for Micro iter.    ....   0.010
   NR start threshold (gradient norm)   ....   0.001
   Initial trust radius                 ....   0.400
   Minimum AH scaling param. (alpha)    ....   1.000
   Maximum AH scaling param. (alpha)    .... 1000.000
   Orbital update algorithm             .... Taylor
   White noise on init. David. guess    .... on
   Maximum white noise                  ....   0.010
   Quad. conv. algorithm                .... NR
 SOSCF                  CNVSOSCF        .... on
   Start iteration      SOSCFMaxIt      ....   150
   Startup grad/error   SOSCFStart      ....  0.003300
 Level Shifting         CNVShift        .... on
   Level shift para.    LevelShift      ....    0.2500
   Turn off err/grad.   ShiftErr        ....    0.0010
 Zerner damping         CNVZerner       .... off
 Static damping         CNVDamp         .... on
   Fraction old density DampFac         ....    0.7000
   Max. Damping (<1)    DampMax         ....    0.9800
   Min. Damping (>=0)   DampMin         ....    0.0000
   Turn off err/grad.   DampErr         ....    0.1000
 Fernandez-Rico         CNVRico         .... off

SCF Procedure:
 Maximum # iterations   MaxIter         ....   125
 SCF integral mode      SCFMode         .... Direct
   Integral package                     .... SHARK and LIBINT hybrid scheme
 Reset frequency        DirectResetFreq ....    20
 Integral Threshold     Thresh          ....  2.500e-11 Eh
 Primitive CutOff       TCut            ....  2.500e-12 Eh

Convergence Tolerance:
 Convergence Check Mode ConvCheckMode   .... Total+1el-Energy
 Convergence forced     ConvForced      .... 1
 Energy Change          TolE            ....  1.000e-08 Eh
 1-El. energy change                    ....  1.000e-05 Eh
 Orbital Gradient       TolG            ....  1.000e-05
 Orbital Rotation angle TolX            ....  1.000e-05
 DIIS Error             TolErr          ....  5.000e-07


Diagonalization of the overlap matrix:
Smallest eigenvalue                        ... 3.591e-06
Time for diagonalization                   ...    0.128 sec
Threshold for overlap eigenvalues          ... 1.000e-08
Number of eigenvalues below threshold      ... 0
Time for construction of square roots      ...    0.130 sec
Total time needed                          ...    0.260 sec

Time for model grid setup =    2.129 sec

------------------------------
INITIAL GUESS: MODEL POTENTIAL
------------------------------
Loading Hartree-Fock densities                     ... done
Calculating cut-offs                               ... done
Initializing the effective Hamiltonian             ... done
Setting up the integral package (SHARK)            ... done
Starting the Coulomb interaction                   ... done (   3.6 sec)
Reading the grid                                   ... done
Mapping shells                                     ... done
Starting the XC term evaluation                    ... done (   2.4 sec)
  promolecular density results
     # of electrons  =    141.007232966
     EX              =   -116.520295132
     EC              =     -4.826972228
     EX+EC           =   -121.347267359
Transforming the Hamiltonian                       ... done (   0.0 sec)
Diagonalizing the Hamiltonian                      ... done (   0.1 sec)
Back transforming the eigenvectors                 ... done (   0.0 sec)
Now organizing SCF variables                       ... done
                      ------------------
                      INITIAL GUESS DONE (   8.3 sec)
                      ------------------
-------------------
DFT GRID GENERATION
-------------------

General Integration Accuracy     IntAcc      ... 4.388
Radial Grid Type                 RadialGrid  ... OptM3 with GC (2021)
Angular Grid (max. ang.)         AngularGrid ... 4 (Lebedev-302)
Angular grid pruning method      GridPruning ... 4 (adaptive)
Weight generation scheme         WeightScheme... Becke
Basis function cutoff            BFCut       ... 1.0000e-11
Integration weight cutoff        WCut        ... 1.0000e-14
Angular grids for H and He will be reduced by one unit
Partially contracted basis set               ... off
Rotationally invariant grid construction     ... off

Total number of grid points                  ...   167516
Total number of batches                      ...     2633
Average number of points per batch           ...       63
Average number of grid points per atom       ...     4786
Time for grid setup =    6.299 sec

--------------------
COSX GRID GENERATION
--------------------

GRIDX 1
-------
General Integration Accuracy     IntAcc      ... 3.816
Radial Grid Type                 RadialGrid  ... OptM3 with GC (2021)
Angular Grid (max. ang.)         AngularGrid ... 1 (Lebedev-50)
Angular grid pruning method      GridPruning ... 4 (adaptive)
Weight generation scheme         WeightScheme... Becke
Basis function cutoff            BFCut       ... 1.0000e-11
Integration weight cutoff        WCut        ... 1.0000e-14
Angular grids for H and He will be reduced by one unit
Partially contracted basis set               ... on
Rotationally invariant grid construction     ... off

Total number of grid points                  ...    21317
Total number of batches                      ...      348
Average number of points per batch           ...       61
Average number of grid points per atom       ...      609
UseSFitting                                  ... on

GRIDX 2
-------
General Integration Accuracy     IntAcc      ... 4.020
Radial Grid Type                 RadialGrid  ... OptM3 with GC (2021)
Angular Grid (max. ang.)         AngularGrid ... 2 (Lebedev-110)
Angular grid pruning method      GridPruning ... 4 (adaptive)
Weight generation scheme         WeightScheme... Becke
Basis function cutoff            BFCut       ... 1.0000e-11
Integration weight cutoff        WCut        ... 1.0000e-14
Angular grids for H and He will be reduced by one unit
Partially contracted basis set               ... on
Rotationally invariant grid construction     ... off

Total number of grid points                  ...    46378
Total number of batches                      ...      744
Average number of points per batch           ...       62
Average number of grid points per atom       ...     1325
UseSFitting                                  ... on

GRIDX 3
-------
General Integration Accuracy     IntAcc      ... 4.338
Radial Grid Type                 RadialGrid  ... OptM3 with GC (2021)
Angular Grid (max. ang.)         AngularGrid ... 3 (Lebedev-194)
Angular grid pruning method      GridPruning ... 4 (adaptive)
Weight generation scheme         WeightScheme... Becke
Basis function cutoff            BFCut       ... 1.0000e-11
Integration weight cutoff        WCut        ... 1.0000e-14
Angular grids for H and He will be reduced by one unit
Partially contracted basis set               ... on
Rotationally invariant grid construction     ... off

Total number of grid points                  ...   101459
Total number of batches                      ...     1604
Average number of points per batch           ...       63
Average number of grid points per atom       ...     2899
UseSFitting                                  ... on

Time for X-Grid setup             =   10.238 sec


--------------------
CPCM SOLVATION MODEL
--------------------
CPCM parameters:
  Epsilon                                         ...      80.4000
  Refrac                                          ...       1.3300
  Rsolv                                           ...       1.3000
  Surface type                                    ... GAUSSIAN VDW
  Epsilon function type                           ...         CPCM
Radii:
 Radius for C  used is    3.8550 Bohr (=   2.0400 Ang.)
 Radius for O  used is    3.4469 Bohr (=   1.8240 Ang.)
 Radius for N  used is    3.5149 Bohr (=   1.8600 Ang.)
 Radius for H  used is    2.4944 Bohr (=   1.3200 Ang.)
Calculating surface                               ...        done! (  0.0s)
GEPOL surface points                              ...         1821
GEPOL Volume                                      ...    2098.1284
GEPOL Surface-area                                ...    1070.2762
Calculating surface distance matrix               ...        done! (  0.1s)
Performing Cholesky decomposition & store         ...        done! (  0.8s)
Overall time for CPCM initialization              ...                 0.8s
--------------
SCF ITERATIONS
--------------
ITER       Energy         Delta-E        Max-DP      RMS-DP      [F,P]     Damp
               ***  Starting incremental Fock matrix formation  ***
  0   -878.4395845333   0.000000000000 0.08419800  0.00137075  0.3108863 0.7000
  1   -878.6449957907  -0.205411257352 0.09002048  0.00113141  0.1219904 0.7000
                               ***Turning on DIIS***
  2   -878.7289302004  -0.083934409730 0.13430060  0.00186437  0.0376391 0.0000
  3   -878.8611976479  -0.132267447479 0.11198901  0.00097914  0.0606582 0.0000
  4   -878.8886354038  -0.027437755931 0.01827804  0.00025341  0.0181778 0.0000
  5   -878.8901747136  -0.001539309751 0.02030332  0.00015653  0.0100187 0.0000
                      *** Initiating the SOSCF procedure ***
                           *** Shutting down DIIS ***
                      *** Re-Reading the Fockian *** 
                      *** Removing any level shift *** 
ITER      Energy       Delta-E        Grad      Rot      Max-DP    RMS-DP
  6   -878.89032719  -0.0001524727  0.000383  0.000383  0.006074  0.000049
               *** Restarting incremental Fock matrix formation ***
  7   -878.89027069   0.0000564992  0.000108  0.000556  0.002831  0.000032
  8   -878.89027071  -0.0000000273  0.000182  0.000395  0.000565  0.000007
  9   -878.89027291  -0.0000021941  0.000033  0.000166  0.000811  0.000008
 10   -878.89027288   0.0000000288  0.000030  0.000045  0.000398  0.000003
 11   -878.89027301  -0.0000001347  0.000006  0.000028  0.000837  0.000006
 12   -878.89027302  -0.0000000096  0.000005  0.000013  0.000105  0.000001
                  ***Gradient check signals convergence***
              ***Rediagonalizing the Fockian in SOSCF/NRSCF***

               *****************************************************
               *                     SUCCESS                       *
               *           SCF CONVERGED AFTER  13 CYCLES          *
               *****************************************************

Old exchange energy                            =    -23.620354137 Eh
New exchange energy                            =    -23.620317585 Eh
Exchange energy change after final integration =      0.000036552 Eh
Total energy after final integration           =   -878.890236463 Eh
Final COS-X integration done in                =   186.668 sec

----------------
TOTAL SCF ENERGY
----------------

Total Energy       :         -878.89023646 Eh          -23915.81919 eV

Components:
Nuclear Repulsion  :         1526.62858052 Eh           41541.67561 eV
Electronic Energy  :        -2405.51881698 Eh          -65457.49480 eV
One Electron Energy:        -4204.58546748 Eh         -114412.58719 eV
Two Electron Energy:         1799.06665049 Eh           48955.09239 eV
Max COSX asymmetry :            0.00000111 Eh               0.00003 eV
CPCM Dielectric    :           -0.08800268 Eh              -2.39467 eV

Virial components:
Potential Energy   :        -1754.32803991 Eh          -47737.69290 eV
Kinetic Energy     :          875.43780345 Eh           23821.87371 eV
Virial Ratio       :            2.00394366


DFT components:
N(Alpha)           :       69.999904885258 electrons
N(Beta)            :       69.999904885258 electrons
N(Total)           :      139.999809770517 electrons
E(X)               :      -93.875805521169 Eh       
E(C)               :       -6.169050459785 Eh       
E(XC)              :     -100.044855980954 Eh       
DFET-embed. en.    :        0.000000000000 Eh       
CPCM Solvation Model Properties:
Surface-charge          :           -1.02691608
Charge-correction       :            0.00254887 Eh               0.06936 eV
Free-energy (cav+disp)  :  This term is not implemented in the current solvation scheme

---------------
SCF CONVERGENCE
---------------

  Last Energy change         ...    9.8288e-09  Tolerance :   1.0000e-08
  Last MAX-Density change    ...    1.9984e-15  Tolerance :   1.0000e-07
  Last RMS-Density change    ...    1.8431e-17  Tolerance :   5.0000e-09
  Last Orbital Gradient      ...    1.3940e-06  Tolerance :   1.0000e-05
  Last Orbital Rotation      ...    4.8361e-06  Tolerance :   1.0000e-05

             **** THE GBW FILE WAS UPDATED (HBQ-H_ES.gbw) ****
             **** DENSITY HBQ-H_ES.scfp WAS UPDATED ****
             **** ENERGY FILE WAS UPDATED (HBQ-H_ES.en.tmp) ****
             **** THE GBW FILE WAS UPDATED (HBQ-H_ES.gbw) ****
             **** DENSITY HBQ-H_ES.scfp WAS UPDATED ****
----------------
ORBITAL ENERGIES
----------------

  NO   OCC          E(Eh)            E(eV) 
   0   2.0000     -19.198702      -522.4232 
   1   2.0000     -19.109561      -519.9976 
   2   2.0000     -14.428683      -392.6244 
   3   2.0000     -14.360917      -390.7804 
   4   2.0000     -10.329354      -281.0760 
   5   2.0000     -10.273895      -279.5669 
   6   2.0000     -10.265389      -279.3354 
   7   2.0000     -10.263450      -279.2827 
   8   2.0000     -10.227246      -278.2975 
   9   2.0000     -10.226703      -278.2827 
  10   2.0000     -10.224603      -278.2256 
  11   2.0000     -10.214561      -277.9523 
  12   2.0000     -10.213233      -277.9162 
  13   2.0000     -10.200989      -277.5830 
  14   2.0000     -10.198633      -277.5189 
  15   2.0000     -10.198226      -277.5078 
  16   2.0000     -10.197249      -277.4813 
  17   2.0000     -10.194539      -277.4075 
  18   2.0000     -10.192864      -277.3619 
  19   2.0000     -10.189671      -277.2751 
  20   2.0000      -1.150965       -31.3193 
  21   2.0000      -1.054644       -28.6983 
  22   2.0000      -1.046398       -28.4739 
  23   2.0000      -0.964687       -26.2505 
  24   2.0000      -0.912837       -24.8396 
  25   2.0000      -0.876613       -23.8538 
  26   2.0000      -0.849842       -23.1254 
  27   2.0000      -0.817157       -22.2360 
  28   2.0000      -0.783190       -21.3117 
  29   2.0000      -0.773544       -21.0492 
  30   2.0000      -0.733328       -19.9549 
  31   2.0000      -0.727026       -19.7834 
  32   2.0000      -0.701647       -19.0928 
  33   2.0000      -0.692946       -18.8560 
  34   2.0000      -0.672327       -18.2949 
  35   2.0000      -0.655950       -17.8493 
  36   2.0000      -0.615237       -16.7414 
  37   2.0000      -0.600060       -16.3285 
  38   2.0000      -0.562141       -15.2966 
  39   2.0000      -0.556155       -15.1337 
  40   2.0000      -0.550383       -14.9767 
  41   2.0000      -0.545879       -14.8541 
  42   2.0000      -0.514028       -13.9874 
  43   2.0000      -0.512119       -13.9355 
  44   2.0000      -0.507499       -13.8097 
  45   2.0000      -0.497109       -13.5270 
  46   2.0000      -0.491001       -13.3608 
  47   2.0000      -0.485774       -13.2186 
  48   2.0000      -0.470941       -12.8150 
  49   2.0000      -0.460010       -12.5175 
  50   2.0000      -0.458704       -12.4820 
  51   2.0000      -0.446624       -12.1533 
  52   2.0000      -0.435100       -11.8397 
  53   2.0000      -0.431297       -11.7362 
  54   2.0000      -0.415495       -11.3062 
  55   2.0000      -0.413512       -11.2522 
  56   2.0000      -0.410231       -11.1629 
  57   2.0000      -0.410101       -11.1594 
  58   2.0000      -0.400927       -10.9098 
  59   2.0000      -0.390918       -10.6374 
  60   2.0000      -0.383146       -10.4259 
  61   2.0000      -0.379000       -10.3131 
  62   2.0000      -0.368629       -10.0309 
  63   2.0000      -0.342884        -9.3303 
  64   2.0000      -0.338046        -9.1987 
  65   2.0000      -0.309543        -8.4231 
  66   2.0000      -0.302063        -8.2196 
  67   2.0000      -0.276140        -7.5142 
  68   2.0000      -0.261602        -7.1185 
  69   2.0000      -0.251197        -6.8354 
  70   0.0000      -0.102675        -2.7939 
  71   0.0000      -0.075149        -2.0449 
  72   0.0000      -0.041459        -1.1282 
  73   0.0000      -0.011236        -0.3057 
  74   0.0000       0.022334         0.6077 
  75   0.0000       0.032799         0.8925 
  76   0.0000       0.037112         1.0099 
  77   0.0000       0.052638         1.4324 
  78   0.0000       0.055967         1.5230 
  79   0.0000       0.067133         1.8268 
  80   0.0000       0.070547         1.9197 
  81   0.0000       0.076437         2.0800 
  82   0.0000       0.084753         2.3062 
  83   0.0000       0.087435         2.3792 
  84   0.0000       0.091301         2.4844 
  85   0.0000       0.094258         2.5649 
  86   0.0000       0.097520         2.6537 
  87   0.0000       0.104154         2.8342 
  88   0.0000       0.110579         3.0090 
  89   0.0000       0.117190         3.1889 
  90   0.0000       0.121410         3.3037 
  91   0.0000       0.127037         3.4568 
  92   0.0000       0.132235         3.5983 
  93   0.0000       0.136717         3.7203 
  94   0.0000       0.147481         4.0132 
  95   0.0000       0.150561         4.0970 
  96   0.0000       0.154675         4.2089 
  97   0.0000       0.159310         4.3350 
  98   0.0000       0.164717         4.4822 
  99   0.0000       0.169578         4.6144 
 100   0.0000       0.176838         4.8120 
 101   0.0000       0.182162         4.9569 
 102   0.0000       0.184658         5.0248 
 103   0.0000       0.186555         5.0764 
 104   0.0000       0.198768         5.4087 
 105   0.0000       0.202625         5.5137 
 106   0.0000       0.207106         5.6356 
 107   0.0000       0.209026         5.6879 
 108   0.0000       0.213433         5.8078 
 109   0.0000       0.217621         5.9218 
 110   0.0000       0.222403         6.0519 
 111   0.0000       0.228991         6.2312 
 112   0.0000       0.234437         6.3793 
 113   0.0000       0.244642         6.6570 
 114   0.0000       0.249893         6.7999 
 115   0.0000       0.252826         6.8797 
 116   0.0000       0.256265         6.9733 
 117   0.0000       0.258056         7.0221 
 118   0.0000       0.262535         7.1439 
 119   0.0000       0.272046         7.4027 
 120   0.0000       0.275782         7.5044 
 121   0.0000       0.282109         7.6766 
 122   0.0000       0.285626         7.7723 
 123   0.0000       0.286842         7.8054 
 124   0.0000       0.297459         8.0943 
 125   0.0000       0.302770         8.2388 
 126   0.0000       0.307947         8.3797 
 127   0.0000       0.308961         8.4072 
 128   0.0000       0.315565         8.5870 
 129   0.0000       0.322604         8.7785 
 130   0.0000       0.323972         8.8157 
 131   0.0000       0.326964         8.8971 
 132   0.0000       0.333202         9.0669 
 133   0.0000       0.340061         9.2535 
 134   0.0000       0.343181         9.3384 
 135   0.0000       0.345930         9.4132 
 136   0.0000       0.348999         9.4967 
 137   0.0000       0.364543         9.9197 
 138   0.0000       0.374633        10.1943 
 139   0.0000       0.376999        10.2587 
 140   0.0000       0.378409        10.2970 
 141   0.0000       0.388550        10.5730 
 142   0.0000       0.394423        10.7328 
 143   0.0000       0.396937        10.8012 
 144   0.0000       0.400630        10.9017 
 145   0.0000       0.405597        11.0369 
 146   0.0000       0.410741        11.1768 
 147   0.0000       0.412579        11.2268 
 148   0.0000       0.416456        11.3323 
 149   0.0000       0.420614        11.4455 
 150   0.0000       0.427739        11.6394 
 151   0.0000       0.439144        11.9497 
 152   0.0000       0.444172        12.0865 
 153   0.0000       0.451199        12.2778 
 154   0.0000       0.453931        12.3521 
 155   0.0000       0.455049        12.3825 
 156   0.0000       0.459555        12.5051 
 157   0.0000       0.466335        12.6896 
 158   0.0000       0.469785        12.7835 
 159   0.0000       0.475349        12.9349 
 160   0.0000       0.479609        13.0508 
 161   0.0000       0.486792        13.2463 
 162   0.0000       0.488494        13.2926 
 163   0.0000       0.491127        13.3643 
 164   0.0000       0.502583        13.6760 
 165   0.0000       0.508745        13.8436 
 166   0.0000       0.510549        13.8927 
 167   0.0000       0.513368        13.9695 
 168   0.0000       0.519520        14.1369 
 169   0.0000       0.521816        14.1993 
 170   0.0000       0.530274        14.4295 
 171   0.0000       0.532201        14.4819 
 172   0.0000       0.540205        14.6997 
 173   0.0000       0.544935        14.8284 
 174   0.0000       0.551858        15.0168 
 175   0.0000       0.573089        15.5945 
 176   0.0000       0.576900        15.6982 
 177   0.0000       0.582078        15.8392 
 178   0.0000       0.585270        15.9260 
 179   0.0000       0.597557        16.2603 
 180   0.0000       0.600755        16.3474 
 181   0.0000       0.608828        16.5671 
 182   0.0000       0.610293        16.6069 
 183   0.0000       0.618328        16.8256 
 184   0.0000       0.621911        16.9230 
 185   0.0000       0.628958        17.1148 
 186   0.0000       0.640489        17.4286 
 187   0.0000       0.649027        17.6609 
 188   0.0000       0.653103        17.7718 
 189   0.0000       0.660405        17.9705 
 190   0.0000       0.669773        18.2254 
 191   0.0000       0.678116        18.4525 
 192   0.0000       0.679948        18.5023 
 193   0.0000       0.683217        18.5913 
 194   0.0000       0.688884        18.7455 
 195   0.0000       0.694594        18.9009 
 196   0.0000       0.702481        19.1155 
 197   0.0000       0.712972        19.4009 
 198   0.0000       0.720336        19.6013 
 199   0.0000       0.732892        19.9430 
 200   0.0000       0.735026        20.0011 
 201   0.0000       0.737574        20.0704 
 202   0.0000       0.742572        20.2064 
 203   0.0000       0.744936        20.2707 
 204   0.0000       0.752874        20.4867 
 205   0.0000       0.756674        20.5902 
 206   0.0000       0.762280        20.7427 
 207   0.0000       0.777698        21.1622 
 208   0.0000       0.784274        21.3412 
 209   0.0000       0.787050        21.4167 
 210   0.0000       0.797266        21.6947 
 211   0.0000       0.798075        21.7167 
 212   0.0000       0.805295        21.9132 
 213   0.0000       0.811337        22.0776 
 214   0.0000       0.819836        22.3089 
 215   0.0000       0.835415        22.7328 
 216   0.0000       0.844111        22.9694 
 217   0.0000       0.845339        23.0028 
 218   0.0000       0.852960        23.2102 
 219   0.0000       0.858495        23.3608 
 220   0.0000       0.860800        23.4236 
 221   0.0000       0.863801        23.5052 
 222   0.0000       0.874168        23.7873 
 223   0.0000       0.894081        24.3292 
 224   0.0000       0.901022        24.5181 
 225   0.0000       0.910423        24.7739 
 226   0.0000       0.918350        24.9896 
 227   0.0000       0.925314        25.1791 
 228   0.0000       0.930206        25.3122 
 229   0.0000       0.945726        25.7345 
 230   0.0000       0.953777        25.9536 
 231   0.0000       0.958044        26.0697 
 232   0.0000       0.970807        26.4170 
 233   0.0000       0.973366        26.4866 
 234   0.0000       0.986763        26.8512 
 235   0.0000       0.996447        27.1147 
 236   0.0000       1.011295        27.5187 
 237   0.0000       1.018649        27.7189 
 238   0.0000       1.027960        27.9722 
 239   0.0000       1.035766        28.1846 
 240   0.0000       1.042165        28.3588 
 241   0.0000       1.051695        28.6181 
 242   0.0000       1.058337        28.7988 
 243   0.0000       1.063074        28.9277 
 244   0.0000       1.082724        29.4624 
 245   0.0000       1.085108        29.5273 
 246   0.0000       1.102436        29.9988 
 247   0.0000       1.108708        30.1695 
 248   0.0000       1.114693        30.3323 
 249   0.0000       1.128164        30.6989 
 250   0.0000       1.136938        30.9377 
 251   0.0000       1.144156        31.1341 
 252   0.0000       1.155155        31.4334 
 253   0.0000       1.170707        31.8566 
 254   0.0000       1.181012        32.1370 
 255   0.0000       1.186714        32.2921 
 256   0.0000       1.195102        32.5204 
 257   0.0000       1.202179        32.7130 
 258   0.0000       1.212700        32.9993 
 259   0.0000       1.224138        33.3105 
 260   0.0000       1.229870        33.4665 
 261   0.0000       1.244346        33.8604 
 262   0.0000       1.250531        34.0287 
 263   0.0000       1.258442        34.2439 
 264   0.0000       1.270151        34.5626 
 265   0.0000       1.275870        34.7182 
 266   0.0000       1.293294        35.1923 
 267   0.0000       1.300046        35.3761 
 268   0.0000       1.310491        35.6603 
 269   0.0000       1.321219        35.9522 
 270   0.0000       1.326022        36.0829 
 271   0.0000       1.336344        36.3638 
 272   0.0000       1.341126        36.4939 
 273   0.0000       1.356018        36.8991 
 274   0.0000       1.374451        37.4007 
 275   0.0000       1.390920        37.8489 
 276   0.0000       1.395475        37.9728 
 277   0.0000       1.399143        38.0726 
 278   0.0000       1.404325        38.2136 
 279   0.0000       1.419378        38.6232 
 280   0.0000       1.419575        38.6286 
 281   0.0000       1.429505        38.8988 
 282   0.0000       1.440566        39.1998 
 283   0.0000       1.446843        39.3706 
 284   0.0000       1.452355        39.5206 
 285   0.0000       1.457176        39.6518 
 286   0.0000       1.465111        39.8677 
 287   0.0000       1.476735        40.1840 
 288   0.0000       1.484692        40.4005 
 289   0.0000       1.489384        40.5282 
 290   0.0000       1.500835        40.8398 
 291   0.0000       1.519414        41.3454 
 292   0.0000       1.524125        41.4735 
 293   0.0000       1.527214        41.5576 
 294   0.0000       1.530531        41.6479 
 295   0.0000       1.541981        41.9594 
 296   0.0000       1.550128        42.1811 
 297   0.0000       1.551702        42.2239 
 298   0.0000       1.556074        42.3429 
 299   0.0000       1.564254        42.5655 
 300   0.0000       1.576878        42.9090 
 301   0.0000       1.579247        42.9735 
 302   0.0000       1.582446        43.0605 
 303   0.0000       1.589013        43.2392 
 304   0.0000       1.601608        43.5820 
 305   0.0000       1.602614        43.6094 
 306   0.0000       1.614680        43.9377 
 307   0.0000       1.615805        43.9683 
 308   0.0000       1.624451        44.2035 
 309   0.0000       1.634125        44.4668 
 310   0.0000       1.647125        44.8206 
 311   0.0000       1.653919        45.0054 
 312   0.0000       1.658273        45.1239 
 313   0.0000       1.663649        45.2702 
 314   0.0000       1.668695        45.4075 
 315   0.0000       1.681449        45.7545 
 316   0.0000       1.691209        46.0201 
 317   0.0000       1.699061        46.2338 
 318   0.0000       1.701850        46.3097 
 319   0.0000       1.709928        46.5295 
 320   0.0000       1.726040        46.9679 
 321   0.0000       1.737821        47.2885 
 322   0.0000       1.742469        47.4150 
 323   0.0000       1.749618        47.6095 
 324   0.0000       1.762972        47.9729 
 325   0.0000       1.768814        48.1319 
 326   0.0000       1.775158        48.3045 
 327   0.0000       1.788776        48.6751 
 328   0.0000       1.801458        49.0202 
 329   0.0000       1.810416        49.2639 
 330   0.0000       1.821577        49.5676 
 331   0.0000       1.835757        49.9535 
 332   0.0000       1.838459        50.0270 
 333   0.0000       1.867914        50.8285 
 334   0.0000       1.875887        51.0455 
 335   0.0000       1.885621        51.3104 
 336   0.0000       1.891722        51.4764 
 337   0.0000       1.905159        51.8420 
 338   0.0000       1.926348        52.4186 
 339   0.0000       1.940035        52.7910 
 340   0.0000       1.943101        52.8745 
 341   0.0000       1.958845        53.3029 
 342   0.0000       1.973001        53.6881 
 343   0.0000       1.984141        53.9912 
 344   0.0000       1.992472        54.2179 
 345   0.0000       2.016352        54.8677 
 346   0.0000       2.021626        55.0112 
 347   0.0000       2.048104        55.7317 
 348   0.0000       2.058401        56.0120 
 349   0.0000       2.065154        56.1957 
 350   0.0000       2.076050        56.4922 
 351   0.0000       2.092681        56.9447 
 352   0.0000       2.105112        57.2830 
 353   0.0000       2.120851        57.7113 
 354   0.0000       2.139333        58.2142 
 355   0.0000       2.148085        58.4524 
 356   0.0000       2.176810        59.2340 
 357   0.0000       2.180929        59.3461 
 358   0.0000       2.188670        59.5567 
 359   0.0000       2.201143        59.8961 
 360   0.0000       2.214622        60.2629 
 361   0.0000       2.230437        60.6933 
 362   0.0000       2.234676        60.8086 
 363   0.0000       2.258152        61.4474 
 364   0.0000       2.266640        61.6784 
 365   0.0000       2.269969        61.7690 
 366   0.0000       2.287568        62.2479 
 367   0.0000       2.296165        62.4818 
 368   0.0000       2.310170        62.8629 
 369   0.0000       2.313170        62.9446 
 370   0.0000       2.327566        63.3363 
 371   0.0000       2.330590        63.4186 
 372   0.0000       2.337077        63.5951 
 373   0.0000       2.343396        63.7671 
 374   0.0000       2.351016        63.9744 
 375   0.0000       2.367447        64.4215 
 376   0.0000       2.370412        64.5022 
 377   0.0000       2.383671        64.8630 
 378   0.0000       2.388567        64.9962 
 379   0.0000       2.410530        65.5939 
 380   0.0000       2.415151        65.7196 
 381   0.0000       2.424680        65.9789 
 382   0.0000       2.434975        66.2590 
 383   0.0000       2.445805        66.5537 
 384   0.0000       2.452694        66.7412 
 385   0.0000       2.454386        66.7872 
 386   0.0000       2.463250        67.0285 
 387   0.0000       2.489262        67.7363 
 388   0.0000       2.503046        68.1114 
 389   0.0000       2.530915        68.8697 
 390   0.0000       2.538548        69.0774 
 391   0.0000       2.559080        69.6361 
 392   0.0000       2.562330        69.7245 
 393   0.0000       2.571750        69.9809 
 394   0.0000       2.613449        71.1156 
 395   0.0000       2.620626        71.3109 
 396   0.0000       2.628755        71.5321 
 397   0.0000       2.643688        71.9384 
 398   0.0000       2.659945        72.3808 
 399   0.0000       2.670306        72.6627 
 400   0.0000       2.682091        72.9834 
 401   0.0000       2.691693        73.2447 
 402   0.0000       2.694084        73.3098 
 403   0.0000       2.697856        73.4124 
 404   0.0000       2.701660        73.5159 
 405   0.0000       2.720298        74.0231 
 406   0.0000       2.722474        74.0823 
 407   0.0000       2.732625        74.3585 
 408   0.0000       2.742222        74.6197 
 409   0.0000       2.748277        74.7844 
 410   0.0000       2.761668        75.1488 
 411   0.0000       2.773936        75.4826 
 412   0.0000       2.780645        75.6652 
 413   0.0000       2.798023        76.1381 
 414   0.0000       2.802891        76.2705 
 415   0.0000       2.806715        76.3746 
[...]
     70       0.000021   0.000001   0.000046
     71      -0.000676   0.000111  -0.000264
     72      -0.000001  -0.000035  -0.000097
     73      -0.000330  -0.000175   0.000522
     74      -0.000113  -0.000056   0.000143
     75       0.000257   0.000042  -0.000419
     76       0.000155  -0.000025   0.000054
     77      -0.000274  -0.000017   0.000196
     78       0.022228   0.000752  -0.000025
     79      -0.047859  -0.001904   0.000030
     80      -0.034211  -0.001330   0.000045
     81      -0.883829  -0.010973  -0.000024
     82       0.069431   0.000824   0.000275
     83       0.287278   0.003565   0.000306
     84      -0.225138   0.002295  -0.000338
     85      -0.245739   0.002500  -0.000625
     86      -0.091609   0.000935  -0.000336
     87       0.002821   0.001863   0.000330
     88      -0.008358  -0.005303  -0.000205
     89      -0.005838  -0.003755  -0.000178
     90       0.000222  -0.007933   0.000213
     91       0.000106   0.001269   0.000014
     92      -0.000037   0.002522  -0.000337
     93      -0.002731   0.320545  -0.000504
     94       0.006328  -0.737319   0.004169
     95       0.004444  -0.516468   0.002991
     96       0.003245  -0.178020  -0.000644
     97       0.003337  -0.180585  -0.000059
     98       0.001289  -0.067603   0.000118
     99       0.005490  -0.092490   0.000046
    100      -0.000783   0.013988   0.000144
    101      -0.001721   0.030653   0.000218
    102       0.000590  -0.003247  -0.935958
    103      -0.000035   0.005159   0.150780
    104      -0.000131   0.003981   0.309605


-----------
IR SPECTRUM
-----------

 Mode   freq       eps      Int      T**2         TX        TY        TZ
       cm**-1   L/(mol*cm) km/mol    a.u.
----------------------------------------------------------------------------
  6:     28.09   0.000097    0.49  0.001082  ( 0.003277  0.032433 -0.004342)
  7:     39.61   0.000994    5.02  0.007829  ( 0.048962  0.069576 -0.024301)
  8:     50.72   0.000271    1.37  0.001669  ( 0.022065  0.004001  0.034152)
  9:     65.21   0.000130    0.66  0.000621  (-0.020824 -0.010103 -0.009244)
 10:     81.20   0.000558    2.82  0.002146  (-0.019123  0.007301 -0.041552)
 11:     96.80   0.000216    1.09  0.000696  ( 0.008936  0.015130 -0.019679)
 12:    102.54   0.000744    3.76  0.002263  (-0.012269  0.038109 -0.025703)
 13:    133.18   0.000802    4.05  0.001878  (-0.026777 -0.030818  0.014538)
 14:    155.47   0.000178    0.90  0.000357  (-0.011384  0.004934 -0.014246)
 15:    201.93   0.000597    3.01  0.000922  ( 0.010586  0.003379 -0.028257)
 16:    223.13   0.001161    5.87  0.001624  ( 0.026587 -0.028662  0.009800)
 17:    241.04   0.002874   14.53  0.003721  ( 0.042823  0.042717 -0.007921)
 18:    255.86   0.000279    1.41  0.000341  (-0.004548  0.016388  0.007179)
 19:    263.72   0.002651   13.40  0.003136  (-0.048137  0.017773 -0.022437)
 20:    333.79   0.001165    5.89  0.001089  (-0.031239  0.009288  0.005211)
 21:    338.46   0.001085    5.48  0.001001  (-0.029481  0.008833  0.007313)
 22:    385.29   0.003177   16.06  0.002573  (-0.036242  0.023407  0.026682)
 23:    408.68   0.001235    6.24  0.000943  ( 0.012453  0.020160  0.019526)
 24:    457.03   0.001267    6.40  0.000865  ( 0.000654 -0.013776  0.025976)
 25:    464.14   0.002346   11.86  0.001577  ( 0.028309 -0.020432  0.018933)
 26:    478.23   0.006996   35.35  0.004565  ( 0.033039 -0.040875  0.042459)
 27:    493.27   0.004379   22.13  0.002770  (-0.028460 -0.000882  0.044269)
 28:    499.39   0.008864   44.80  0.005539  (-0.014515  0.037613 -0.062560)
 29:    504.90   0.001197    6.05  0.000740  ( 0.012437  0.023594 -0.005335)
 30:    542.73   0.001343    6.79  0.000772  (-0.027643  0.001912 -0.002098)
 31:    557.76   0.010335   52.23  0.005782  ( 0.013384 -0.041075  0.062577)
 32:    596.41   0.000582    2.94  0.000304  (-0.010771 -0.012123 -0.006430)
 33:    605.32   0.002018   10.20  0.001040  (-0.026760  0.016377 -0.007488)
 34:    632.39   0.006904   34.89  0.003407  ( 0.019820 -0.015380 -0.052700)
 35:    667.01   0.013258   67.00  0.006203  ( 0.025828 -0.048470  0.056450)
 36:    689.48   0.005401   27.29  0.002444  ( 0.040469 -0.022831 -0.016894)
 37:    697.68   0.000829    4.19  0.000371  ( 0.013719 -0.004911 -0.012592)
 38:    717.85   0.000939    4.74  0.000408  ( 0.012639  0.010414  0.011826)
 39:    736.96   0.004816   24.34  0.002039  ( 0.010858  0.042751 -0.009679)
 40:    756.86   0.006761   34.17  0.002788  ( 0.020162  0.011025 -0.047534)
 41:    789.21   0.006493   32.81  0.002567  ( 0.042893 -0.025768  0.007978)
 42:    799.22   0.028989  146.50  0.011319  ( 0.087670 -0.015401 -0.058272)
 43:    819.44   0.003238   16.36  0.001233  (-0.031711  0.012872  0.007866)
 44:    842.43   0.007137   36.07  0.002644  (-0.039566  0.028518 -0.016278)
 45:    852.33   0.013160   66.51  0.004818  (-0.024010  0.035674 -0.054491)
 46:    865.86   0.000357    1.80  0.000129  ( 0.002082  0.011141 -0.000433)
 47:    927.05   0.001665    8.41  0.000560  ( 0.009990 -0.018548  0.010795)
 48:    942.76   0.056946  287.78  0.018850  (-0.120292  0.064096  0.016479)
 49:    944.09   0.001200    6.06  0.000397  (-0.009541 -0.002764  0.017259)
 50:    971.22   0.000648    3.27  0.000208  ( 0.006935 -0.008761  0.009127)
 51:    979.09   0.000051    0.26  0.000016  (-0.001590 -0.003513 -0.001235)
 52:   1009.61   0.007777   39.30  0.002404  (-0.028942  0.034860  0.018732)
 53:   1031.69   0.046159  233.27  0.013962  ( 0.089189 -0.067249 -0.038536)
 54:   1071.05   0.008752   44.23  0.002550  (-0.046211  0.019372  0.006277)
 55:   1074.35   0.004023   20.33  0.001169  (-0.026983  0.020394 -0.004968)
 56:   1094.83   0.067336  340.29  0.019193  (-0.076225  0.092669  0.069248)
 57:   1110.79   0.100290  506.82  0.028175  ( 0.125389 -0.079600 -0.078208)
 58:   1124.23   0.000554    2.80  0.000154  (-0.011440  0.004594 -0.001345)
 59:   1130.60   0.004768   24.10  0.001316  ( 0.030888  0.018662  0.003716)
 60:   1157.41   0.001885    9.53  0.000508  (-0.011259 -0.014838 -0.012704)
 61:   1172.85   0.000692    3.50  0.000184  (-0.006188  0.011341 -0.004159)
 62:   1190.85   0.000866    4.37  0.000227  ( 0.012753  0.000189 -0.008011)
 63:   1201.87   0.013267   67.04  0.003445  (-0.052915  0.023811  0.008818)
 64:   1217.69   0.007499   37.90  0.001922  (-0.027194 -0.034158 -0.003928)
 65:   1228.14   0.021214  107.21  0.005390  (-0.050641  0.047282  0.024298)
 66:   1252.53   0.014869   75.14  0.003705  ( 0.053158 -0.028876 -0.006711)
 67:   1268.29   0.000109    0.55  0.000027  ( 0.003170 -0.000936  0.003978)
 68:   1282.90   0.015743   79.56  0.003830  (-0.021967  0.050339  0.028512)
 69:   1347.08   0.011784   59.55  0.002730  ( 0.051276 -0.004577 -0.008922)
 70:   1358.03   0.041684  210.65  0.009579  ( 0.055613  0.073461  0.033004)
 71:   1378.10   0.001604    8.11  0.000363  ( 0.002177 -0.017512 -0.007202)
 72:   1391.07   0.038985  197.01  0.008746  (-0.091988  0.006768  0.015427)
 73:   1413.18   0.029355  148.35  0.006482  (-0.072743  0.025886  0.022817)
 74:   1441.69   0.002947   14.89  0.000638  (-0.001201 -0.001748 -0.025166)
 75:   1443.83   0.004173   21.09  0.000902  (-0.026721  0.009312  0.010058)
 76:   1457.05   0.014020   70.85  0.003003  ( 0.044529 -0.029480 -0.012278)
 77:   1464.84   0.009387   47.44  0.002000  (-0.013070 -0.011370 -0.041228)
 78:   1476.25   0.000208    1.05  0.000044  (-0.006055  0.002655  0.000596)
 79:   1481.27   0.000729    3.68  0.000154  ( 0.003348 -0.008413  0.008460)
 80:   1485.71   0.008658   43.75  0.001819  (-0.028776 -0.029923  0.009752)
 81:   1488.92   0.001302    6.58  0.000273  ( 0.009986 -0.006922  0.011189)
 82:   1508.01   0.013935   70.42  0.002884  (-0.036044  0.030749  0.025281)
 83:   1516.76   0.022115  111.76  0.004550  ( 0.060202  0.023849  0.018890)
 84:   1523.58   0.007272   36.75  0.001490  ( 0.009710 -0.036636 -0.007282)
 85:   1567.22   0.015121   76.41  0.003011  ( 0.035203  0.038202  0.017669)
 86:   1574.46   0.008316   42.02  0.001648  (-0.031619 -0.024044 -0.008384)
 87:   1605.84   0.005446   27.52  0.001058  ( 0.002642 -0.030028 -0.012238)
 88:   1622.65   0.020716  104.69  0.003984  ( 0.000280  0.053791  0.033022)
 89:   1757.68   0.210843  1065.51  0.037434  (-0.006290 -0.041914 -0.188779)
 90:   3042.89   0.005022   25.38  0.000515  (-0.020446  0.007254 -0.006660)
 91:   3046.87   0.014281   72.17  0.001463  ( 0.009621 -0.021164 -0.030368)
 92:   3098.11   0.007620   38.51  0.000768  (-0.016424 -0.020797  0.008082)
 93:   3101.94   0.001671    8.45  0.000168  ( 0.008454  0.007510 -0.006345)
 94:   3176.07   0.000495    2.50  0.000049  ( 0.003782 -0.001685  0.005615)
 95:   3184.65   0.000970    4.90  0.000095  ( 0.006912 -0.006863  0.000461)
 96:   3194.92   0.000117    0.59  0.000011  (-0.000833 -0.002795 -0.001697)
 97:   3205.82   0.000041    0.21  0.000004  ( 0.000604 -0.001587 -0.001066)
 98:   3209.29   0.000729    3.68  0.000071  (-0.006271  0.004098  0.003844)
 99:   3210.01   0.000059    0.30  0.000006  (-0.001726  0.001204  0.001153)
100:   3220.31   0.001852    9.36  0.000179  (-0.002391 -0.011294 -0.006798)
101:   3220.99   0.000537    2.71  0.000052  (-0.007067 -0.000805  0.001188)
102:   3233.03   0.000541    2.73  0.000052  ( 0.005474 -0.002147 -0.004201)
103:   3240.35   0.002695   13.62  0.000260  (-0.002326 -0.013970 -0.007679)
104:   3632.64   0.086496  437.11  0.007430  (-0.081462  0.012596  0.025215)

* The epsilon (eps) is given for a Dirac delta lineshape.
** The dipole moment derivative (T) already includes vibrational overlap.

The first frequency considered to be a vibration is 6
The total number of vibrations considered is 99


--------------------------
THERMOCHEMISTRY AT 298.15K
--------------------------

Temperature         ... 298.15 K
Pressure            ... 1.00 atm
Total Mass          ... 267.31 AMU

Throughout the following assumptions are being made:
  (1) The electronic state is orbitally nondegenerate
  (2) There are no thermally accessible electronically excited states
  (3) Hindered rotations indicated by low frequency modes are not
      treated as such but are treated as vibrations and this may
      cause some error
  (4) All equations used are the standard statistical mechanics
      equations for an ideal gas
  (5) All vibrations are strictly harmonic

freq.      28.09  E(vib)   ...       0.55 
freq.      39.61  E(vib)   ...       0.54 
freq.      50.72  E(vib)   ...       0.52 
freq.      65.21  E(vib)   ...       0.50 
freq.      81.20  E(vib)   ...       0.48 
freq.      96.80  E(vib)   ...       0.46 
freq.     102.54  E(vib)   ...       0.46 
freq.     133.18  E(vib)   ...       0.42 
freq.     155.47  E(vib)   ...       0.40 
freq.     201.93  E(vib)   ...       0.35 
freq.     223.13  E(vib)   ...       0.33 
freq.     241.04  E(vib)   ...       0.31 
freq.     255.86  E(vib)   ...       0.30 
freq.     263.72  E(vib)   ...       0.29 
freq.     333.79  E(vib)   ...       0.24 
freq.     338.46  E(vib)   ...       0.23 
freq.     385.29  E(vib)   ...       0.20 
freq.     408.68  E(vib)   ...       0.19 
freq.     457.03  E(vib)   ...       0.16 
freq.     464.14  E(vib)   ...       0.16 
freq.     478.23  E(vib)   ...       0.15 
freq.     493.27  E(vib)   ...       0.14 
freq.     499.39  E(vib)   ...       0.14 
freq.     504.90  E(vib)   ...       0.14 
freq.     542.73  E(vib)   ...       0.12 
freq.     557.76  E(vib)   ...       0.12 
freq.     596.41  E(vib)   ...       0.10 
freq.     605.32  E(vib)   ...       0.10 
freq.     632.39  E(vib)   ...       0.09 
freq.     667.01  E(vib)   ...       0.08 
freq.     689.48  E(vib)   ...       0.07 
freq.     697.68  E(vib)   ...       0.07 
freq.     717.85  E(vib)   ...       0.07 
freq.     736.96  E(vib)   ...       0.06 
freq.     756.86  E(vib)   ...       0.06 
freq.     789.21  E(vib)   ...       0.05 
freq.     799.22  E(vib)   ...       0.05 
freq.     819.44  E(vib)   ...       0.05 
freq.     842.43  E(vib)   ...       0.04 
freq.     852.33  E(vib)   ...       0.04 
freq.     865.86  E(vib)   ...       0.04 
freq.     927.05  E(vib)   ...       0.03 
freq.     942.76  E(vib)   ...       0.03 
freq.     944.09  E(vib)   ...       0.03 
freq.     971.22  E(vib)   ...       0.03 
freq.     979.09  E(vib)   ...       0.03 
freq.    1009.61  E(vib)   ...       0.02 
freq.    1031.69  E(vib)   ...       0.02 
freq.    1071.05  E(vib)   ...       0.02 
freq.    1074.35  E(vib)   ...       0.02 
freq.    1094.83  E(vib)   ...       0.02 
freq.    1110.79  E(vib)   ...       0.01 
freq.    1124.23  E(vib)   ...       0.01 
freq.    1130.60  E(vib)   ...       0.01 
freq.    1157.41  E(vib)   ...       0.01 
freq.    1172.85  E(vib)   ...       0.01 
freq.    1190.85  E(vib)   ...       0.01 
freq.    1201.87  E(vib)   ...       0.01 
freq.    1217.69  E(vib)   ...       0.01 
freq.    1228.14  E(vib)   ...       0.01 
freq.    1252.53  E(vib)   ...       0.01 
freq.    1268.29  E(vib)   ...       0.01 
freq.    1282.90  E(vib)   ...       0.01 
freq.    1347.08  E(vib)   ...       0.01 
freq.    1358.03  E(vib)   ...       0.01 
freq.    1378.10  E(vib)   ...       0.01 
freq.    1391.07  E(vib)   ...       0.00 
freq.    1413.18  E(vib)   ...       0.00 
freq.    1441.69  E(vib)   ...       0.00 
freq.    1443.83  E(vib)   ...       0.00 
freq.    1457.05  E(vib)   ...       0.00 
freq.    1464.84  E(vib)   ...       0.00 
freq.    1476.25  E(vib)   ...       0.00 
freq.    1481.27  E(vib)   ...       0.00 
freq.    1485.71  E(vib)   ...       0.00 
freq.    1488.92  E(vib)   ...       0.00 
freq.    1508.01  E(vib)   ...       0.00 
freq.    1516.76  E(vib)   ...       0.00 
freq.    1523.58  E(vib)   ...       0.00 
freq.    1567.22  E(vib)   ...       0.00 
freq.    1574.46  E(vib)   ...       0.00 
freq.    1605.84  E(vib)   ...       0.00 
freq.    1622.65  E(vib)   ...       0.00 
freq.    1757.68  E(vib)   ...       0.00 
freq.    3042.89  E(vib)   ...       0.00 
freq.    3046.87  E(vib)   ...       0.00 
freq.    3098.11  E(vib)   ...       0.00 
freq.    3101.94  E(vib)   ...       0.00 
freq.    3176.07  E(vib)   ...       0.00 
freq.    3184.65  E(vib)   ...       0.00 
freq.    3194.92  E(vib)   ...       0.00 
freq.    3205.82  E(vib)   ...       0.00 
freq.    3209.29  E(vib)   ...       0.00 
freq.    3210.01  E(vib)   ...       0.00 
freq.    3220.31  E(vib)   ...       0.00 
freq.    3220.99  E(vib)   ...       0.00 
freq.    3233.03  E(vib)   ...       0.00 
freq.    3240.35  E(vib)   ...       0.00 
freq.    3632.64  E(vib)   ...       0.00 

------------
INNER ENERGY
------------

The inner energy is: U= E(el) + E(ZPE) + E(vib) + E(rot) + E(trans)
    E(el)   - is the total energy from the electronic structure calculation
              = E(kin-el) + E(nuc-el) + E(el-el) + E(nuc-nuc)
    E(ZPE)  - the the zero temperature vibrational energy from the frequency calculation
    E(vib)  - the the finite temperature correction to E(ZPE) due to population
              of excited vibrational states
    E(rot)  - is the rotational thermal energy
    E(trans)- is the translational thermal energy

Summary of contributions to the inner energy U:
Electronic energy                ...   -878.78157917 Eh
Zero point energy                ...      0.27833655 Eh     174.66 kcal/mol
Thermal vibrational correction   ...      0.01487244 Eh       9.33 kcal/mol
Thermal rotational correction    ...      0.00141627 Eh       0.89 kcal/mol
Thermal translational correction ...      0.00141627 Eh       0.89 kcal/mol
-----------------------------------------------------------------------
Total thermal energy                   -878.48553764 Eh


Summary of corrections to the electronic energy:
(perhaps to be used in another calculation)
Total thermal correction                  0.01770498 Eh      11.11 kcal/mol
Non-thermal (ZPE) correction              0.27833655 Eh     174.66 kcal/mol
-----------------------------------------------------------------------
Total correction                          0.29604153 Eh     185.77 kcal/mol


--------
ENTHALPY
--------

The enthalpy is H = U + kB*T
                kB is Boltzmann's constant
Total free energy                 ...   -878.48553764 Eh 
Thermal Enthalpy correction       ...      0.00094421 Eh       0.59 kcal/mol
-----------------------------------------------------------------------
Total Enthalpy                    ...   -878.48459343 Eh


Note: Only C1 symmetry has been detected, increase convergence thresholds 
      if your molecule has a higher symmetry. Symmetry factor of 1.0 is   
      used for the rotational entropy correction. 
 

Note: Rotational entropy computed according to Herzberg 
Infrared and Raman Spectra, Chapter V,1, Van Nostrand Reinhold, 1945 
Point Group:  C1, Symmetry Number:   1  
Rotational constants in cm-1:     0.017112     0.009201     0.006320 

Vibrational entropy computed according to the QRRHO of S. Grimme
Chem.Eur.J. 2012 18 9955


-------
ENTROPY
-------

The entropy contributions are T*S = T*(S(el)+S(vib)+S(rot)+S(trans))
     S(el)   - electronic entropy
     S(vib)  - vibrational entropy
     S(rot)  - rotational entropy
     S(trans)- translational entropy
The entropies will be listed as multiplied by the temperature to get
units of energy

Electronic entropy                ...      0.00000000 Eh      0.00 kcal/mol
Vibrational entropy               ...      0.02606741 Eh     16.36 kcal/mol
Rotational entropy                ...      0.01603533 Eh     10.06 kcal/mol
Translational entropy             ...      0.02026376 Eh     12.72 kcal/mol
-----------------------------------------------------------------------
Final entropy term                ...      0.06236650 Eh     39.14 kcal/mol

In case the symmetry of your molecule has not been determined correctly
or in case you have a reason to use a different symmetry number we print 
out the resulting rotational entropy values for sn=1,12 :
 --------------------------------------------------------
|  sn= 1 | S(rot)=       0.01603533 Eh     10.06 kcal/mol|
|  sn= 2 | S(rot)=       0.01538087 Eh      9.65 kcal/mol|
|  sn= 3 | S(rot)=       0.01499804 Eh      9.41 kcal/mol|
|  sn= 4 | S(rot)=       0.01472642 Eh      9.24 kcal/mol|
|  sn= 5 | S(rot)=       0.01451573 Eh      9.11 kcal/mol|
|  sn= 6 | S(rot)=       0.01434359 Eh      9.00 kcal/mol|
|  sn= 7 | S(rot)=       0.01419804 Eh      8.91 kcal/mol|
|  sn= 8 | S(rot)=       0.01407196 Eh      8.83 kcal/mol|
|  sn= 9 | S(rot)=       0.01396075 Eh      8.76 kcal/mol|
|  sn=10 | S(rot)=       0.01386127 Eh      8.70 kcal/mol|
|  sn=11 | S(rot)=       0.01377128 Eh      8.64 kcal/mol|
|  sn=12 | S(rot)=       0.01368913 Eh      8.59 kcal/mol|
 --------------------------------------------------------


-------------------
GIBBS FREE ENERGY
-------------------

The Gibbs free energy is G = H - T*S

Total enthalpy                    ...   -878.48459343 Eh 
Total entropy correction          ...     -0.06236650 Eh    -39.14 kcal/mol
-----------------------------------------------------------------------
Final Gibbs free energy         ...   -878.54695993 Eh

For completeness - the Gibbs free energy minus the electronic energy
G-E(el)                           ...      0.23461924 Eh    147.23 kcal/mol



Timings for individual modules:

Sum of individual times         ...   616064.123 sec (=10267.735 min)
GTO integral calculation        ...       81.018 sec (=   1.350 min)   0.0 %
SCF iterations                  ...    18003.567 sec (= 300.059 min)   2.9 %
CIS module                      ...     4757.417 sec (=  79.290 min)   0.8 %
SCF Gradient evaluation         ...    28626.140 sec (= 477.102 min)   4.6 %
Geometry relaxation             ...        3.882 sec (=   0.065 min)   0.0 %
Numerical frequency calculation ...   564592.101 sec (=9409.868 min)  91.6 %
                             ****ORCA TERMINATED NORMALLY****
TOTAL RUN TIME: 7 days 2 hours 28 minutes 18 seconds 134 msec
