
                                 *****************
                                 * O   R   C   A *
                                 *****************

                                            #,                                       
                                            ###                                      
                                            ####                                     
                                            #####                                    
                                            ######                                   
                                           ########,                                 
                                     ,,################,,,,,                         
                               ,,#################################,,                 
                          ,,##########################################,,             
                       ,#########################################, ''#####,          
                    ,#############################################,,   '####,        
                  ,##################################################,,,,####,       
                ,###########''''           ''''###############################       
              ,#####''   ,,,,##########,,,,          '''####'''          '####       
            ,##' ,,,,###########################,,,                        '##       
           ' ,,###''''                  '''############,,,                           
         ,,##''                                '''############,,,,        ,,,,,,###''
      ,#''                                            '''#######################'''  
     '                                                          ''''####''''         
             ,#######,   #######,   ,#######,      ##                                
            ,#'     '#,  ##    ##  ,#'     '#,    #''#        ,####,   ,####,        
            ##       ##  ##   ,#'  ##            #'  '#       #'       #'  '#        
            ##       ##  #######   ##           ,######,      #####,   #    #        
            '#,     ,#'  ##    ##  '#,     ,#' ,#      #,     #,   #   #,  ,#        
             '#######'   ##     ##  '#######'  #'      '#     '####' # '####'        



                #########################################################
                #                        -***-                          #
                #          Department of theory and spectroscopy        #
                #                                                       #
                #                      Frank Neese                      #
                #                                                       #
                #     Directorship, Architecture, Infrastructure        #
                #                    SHARK, DRIVERS                     #
                #        Core code/Algorithms in most modules           #
                #                                                       #
                #        Max Planck Institute fuer Kohlenforschung      #
                #                Kaiser Wilhelm Platz 1                 #
                #                 D-45470 Muelheim/Ruhr                 #
                #                      Germany                          #
                #                                                       #
                #                  All rights reserved                  #
                #                        -***-                          #
                #########################################################


                         Program Version 6.0.1  -  RELEASE   -


 With contributions from (in alphabetic order):
[Max-Planck-Institut fuer Kohlenforschung]                               
  Daniel Aravena         : Magnetic Suceptibility                        
  Michael Atanasov       : Ab Initio Ligand Field Theory (pilot matlab implementation)
  Alexander A. Auer      : GIAO ZORA, VPT2 properties, NMR spectrum      
  Ute Becker             : All parallelization in ORCA, NUMFREQ, NUMCALC 
  Giovanni Bistoni       : ED, misc. LED, open-shell LED, HFLD           
  Martin Brehm           : Molecular dynamics                            
  Dmytro Bykov           : pre 5.0 version of the SCF Hessian            
  Marcos Casanova-Páez   : Triplet and SCS-CIS(D). UHF-(DLPNO)-IP/EA/STEOM-CCSD. UHF-CVS-IP/STEOM-CCSD   
  Vijay G. Chilkuri      : MRCI spin determinant printing, contributions to CSF-ICE 
  Pauline Colinet        : FMM embedding                                 
  Dipayan Datta          : RHF DLPNO-CCSD density                        
  Achintya Kumar Dutta   : EOM-CC, STEOM-CC                              
  Nicolas Foglia         : Exact transition moments, OPA infrastructure, MCD improvements    
  Dmitry Ganyushin       : Spin-Orbit,Spin-Spin,Magnetic field MRCI      
  Miquel Garcia-Rates    : C-PCM and meta-GGA Hessian, CCSD/C-PCM, Gaussian charge scheme 
  Tiago L. C. Gouveia    : GS-ROHF, GS-ROCIS                             
  Yang Guo               : DLPNO-NEVPT2, F12-NEVPT2, CIM, IAO-localization        
  Andreas Hansen         : Spin unrestricted coupled pair/coupled cluster methods 
  Ingolf Harden          : AUTO-CI MPn and infrastructure                
  Benjamin Helmich-Paris : MC-RPA, TRAH-(SCF,CASSCF), AVAS, COSX integrals, SCF dyn. polar. 
  Lee Huntington         : MR-EOM, pCC                                   
  Robert Izsak           : Overlap fitted RIJCOSX, COSX-SCS-MP3, EOM     
  Riya Kayal             : Wick's Theorem for AUTO-CI, AUTO-CI UHF-CCSDT 
  Emily Kempfer          : AUTO-CI, RHF CISDT and CCSDT                  
  Christian Kollmar      : KDIIS, OOCD, Brueckner-CCSD(T), CCSD density, CASPT2, CASPT2-K, improved NEVPT2 
  Axel Koslowski         : Symmetry handling                             
  Simone Kossmann        : meta-GGA functionals, TD-DFT gradient, OOMP2, (MP2 Hessian; deprecated post 5.0) 
  Lucas Lang             : DCDCAS                                        
  Marvin Lechner         : AUTO-CI (C++ implementation), FIC-MRCC        
  Spencer Leger          : CASSCF response                               
  Dagmar Lenk            : GEPOL surface, SMD, ORCA-2-JSON               
  Dimitrios Liakos       : Extrapolation schemes; Compound Job, initial MDCI parallelization 
  Dimitrios Manganas     : Further ROCIS development; embedding schemes. LFT, Crystal Embedding 
  Dimitrios Pantazis     : SARC Basis sets                               
  Anastasios Papadopoulos: AUTO-CI, single reference methods and gradients 
  Taras Petrenko         : pre 6.0 DFT Hessian and TD-DFT gradient, (ASA, deprecated), ECA, 1-Electron XAS/XES, NRVS 
  Peter Pinski           : DLPNO-MP2, DLPNO-MP2 Gradient                 
  Christoph Reimann      : Effective Core Potentials                     
  Marius Retegan         : Local ZFS, SOC                                
  Christoph Riplinger    : Optimizer, TS searches, QM/MM, DLPNO-CCSD(T), (RO)-DLPNO pert. Triples 
  Michael Roemelt        : Original ROCIS implementation                 
  Masaaki Saitow         : Open-shell DLPNO-CCSD energy and density      
  Barbara Sandhoefer     : DKH picture change effects                    
  Kantharuban Sivalingam : CASSCF convergence/infrastructure, NEVPT2 and variants, FIC-MRCI 
  Bernardo de Souza      : ESD, SOC TD-DFT                               
  Georgi L. Stoychev     : AutoAux, RI-MP2 NMR, DLPNO-MP2 response, X2C  
  Van Anh Tran           : RI-MP2 g-tensors                              
  Willem Van den Heuvel  : Paramagnetic NMR                              
  Zikuan Wang            : NOTCH, Electric field optimization            
  Frank Wennmohs         : Technical directorship and infrastructure     
  Hang Xu                : AUTO-CI-Response properties                   
                                                                         
[FACCTs GmbH]                                                            
  Markus Bursch, Miquel Garcia-Rates, Christoph Riplinger, Bernardo de Souza, Georgi L. Stoychev 
                                                                 
  APM, Basis sets (HGBS, AHGBS, def-TZVP (Ac-Lr), def2-XVPD (La-Lu)), CI-OPT, improved COSX, DLPNO-Multilevel,           
  DOCKER, DRACO, updates on ESD, GOAT, IRC, LR-CPCM, MBIS, meta-GGA TD-DFT gradient, ML-optimized integration grids, 
  MM, NACMEs, nearIR, NEB, NEB-TS, NL-DFT gradient (VV10), 2- and 3-layer-ONIOM, interface openCOSMO-RS, QMMM,   
  Crystal-QMMM, SF, symmetry and pop. for TD-DFT, r2SCAN hybrids, SOLVATOR                                   
                                                                         
[Other institutions]                                                     
  V. Asgeirsson          : NEB                                           
  Christoph Bannwarth    : sTDA-DFT, sTD-DFT, PBEh-3c, B97-3c, D3        
  Sebastian Ehlert       : rSCAN, r2SCAN, r2SCAN-3c, D4, dhf basis sets  
  Marvin Friede          : D4 for Fr, Ra, Ac-Lr                          
  Lars Goerigk           : TD-DFT with DH, B97 family of functionals     
  Stefan Grimme          : VdW corrections, initial TS optimization, DFT functionals, gCP, sTDA/sTD-DF 
  Waldemar Hujo          : DFT-NL                                        
  H. Jonsson             : NEB                                           
  Holger Kruse           : gCP                                           
  Marcel Mueller         : wB97X-3c, vDZP basis set                      
  Hagen Neugebauer       : wr2SCAN                                       
  Tobias Risthaus        : range-separated hybrid DFT                    
  Lukas Wittmann         : regularized MP2, r2SCAN double-hybrids, wr2SCAN        
                                                                         
We gratefully acknowledge several colleagues who have allowed us to      
interface, adapt or use parts of their codes:                            
  Ed Valeev, F. Pavosevic, A. Kumar             : LibInt (2-el integral package), F12 methods 
  Garnet Chan, S. Sharma, J. Yang, R. Olivares  : DMRG                   
  Ulf Ekstrom                                   : XCFun DFT Library      
  Mihaly Kallay                                 : mrcc  (arbitrary order and MRCC methods)
  Frank Weinhold                                : gennbo (NPA and NBO analysis)           
  Simon Mueller                                 : openCOSMO-RS                            
  Christopher J. Cramer and Donald G. Truhlar   : smd solvation model                     
  S Lehtola, MJT Oliveira, MAL Marques          : LibXC Library                           
  Liviu Ungur et al                             : ANISO software                          


 Your calculation uses the libint2 library for the computation of 2-el integrals
 For citations please refer to: http://libint.valeyev.net

 Your ORCA version has been built with support for libXC version: 6.2.2
 For citations please refer to: https://libxc.gitlab.io

 This ORCA versions uses:
   CBLAS   interface :  Fast vector & matrix operations
   LAPACKE interface :  Fast linear algebra routines
   SCALAPACK package :  Parallel linear algebra routines
   Shared memory     :  Shared parallel matrices
   BLAS/LAPACK       :  OpenBLAS 0.3.27  USE64BITINT DYNAMIC_ARCH NO_AFFINITY Zen SINGLE_THREADED
        Core in use  :  Zen
   Copyright (c) 2011-2014, The OpenBLAS Project


Warning: RI is on but no J-basis has been assigned. Assigning Def2/J (nothing to worry about!)
================================================================================

----- Orbital basis set information -----
Your calculation utilizes the basis: 6-311G*
   H, Li - Ne  : R. Krishnan, J. S. Binkley, R. Seeger and J. A. Pople, J. Chem. Phys. 72, 650 (1980).
   Na - Ar     : A. D. McLean and G. S. Chandler J. Chem. Phys. 72, 5639, (1980).
   K  - Ca     : J.-P. Blaudeau, M. P. McGrath, L. A. Curtiss and L. Radom, J. Chem. Phys. 107, 5016 (1997).
   Ga - Kr     : L. A. Curtiss, M. P. McGrath, J.-P. Blandeau, N. E. Davis, R. C. Binning and L. Radom, J. Chem. Phys. 103, 6104 (1995).
   Pol./Diff.
   H, Li - Cl  : T. Clark, J. Chandrasekhar and P. v. R. Schleyer, J. Comp. Chem. 4, 294 (1983).
   H - Ne      : M. J. Frisch, J. A. Pople and J. S. Binkley, J. Chem. Phys. 80, 3265 (1984).

----- AuxJ basis set information -----
Your calculation utilizes the auxiliary basis: def2/J
   F. Weigend, Phys. Chem. Chem. Phys. 8, 1057 (2006).

================================================================================
                                        WARNINGS
                       Please study these warnings very carefully!
================================================================================


WARNING: Geometry Optimization
  ===> : Switching off AutoStart
         For restart on a previous wavefunction, please use MOREAD

================================================================================
                                       INPUT FILE
================================================================================
NAME = 3.inp
|  1> ! B3LYP/G OPT FREQ 6-311G* CPCM(Water)
|  2> 
|  3> * xyz 0 1 
|  4> C  -3.42835598041479716613 -0.98189617742141321877 -0.40937175247591128802
|  5> C  -2.88943429417101160794 -1.87182895790464942642 -1.33565676067144312178
|  6> C  -1.55843868163791676729 -1.79930513591762131220 -1.65746476942635534435
|  7> C  -2.62481963052731170905 -0.05279036204188614079 0.21582180148637758466
|  8> C  -1.24065043558521614919 0.00801932574592068015 -0.04645775642142402351
|  9> O  -3.23984703057650635927 0.79508962521827730718 1.12369343283635059194
| 10> C  -0.71891660613185559559 -0.86407565246148254623 -1.03285982615081839420
| 11> C  0.65713771937492770903 -0.77855415302509545228 -1.39539803338011236811
| 12> C  1.48307568763422681357 0.12461001396713600187 -0.82156700276752259171
| 13> C  -0.34022483984848883587 0.90699085327483319752 0.62865414670548136478
| 14> C  1.01049760024486490195 0.98415244193825213159 0.20817496915706135141
| 15> N  -0.79044824008192304809 1.64001263266328778379 1.65776378131940083094
| 16> C  0.01768364492327312298 2.48799289943862333985 2.24648748252856522711
| 17> C  1.34869660694332749173 2.68076651846005020730 1.87121129746362480084
| 18> C  1.84858393250286257015 1.90803515466895667885 0.85189132824924984622
| 19> C  -3.10031036290498374086 2.13362282592975294193 0.91800182416147513287
| 20> O  -2.73390241653861654214 2.60698251268953606896 -0.15071247683684274588
| 21> N  -3.52277306756698393997 2.86916196433364234508 1.94830268580414389668
| 22> C  -3.90840575155498193283 2.32171680997805918167 3.23009517756779729325
| 23> C  -3.43498228856124043773 4.31153620333593856628 1.83320883027556091882
| 24> H  -4.12139920235599355181 4.67203398305714756589 1.06540051384265588297
| 25> H  -2.42437196979890856596 4.60556752077576714299 1.54409781366376086531
| 26> H  -3.68898743811600571263 4.75345514238131272577 2.79059976556211442045
| 27> H  -3.98379007913252447537 1.24188112400999650653 3.15514742711219575710
| 28> H  -4.87445746464801210607 2.73443540232574378024 3.51962943788200721684
| 29> H  -3.16273453564188145037 2.57578280422981986675 3.98499961736920393918
| 30> H  -1.13613209999494579883 -2.45904518398553939562 -2.39933625699696495559
| 31> H  -4.48076683826513377795 -0.99685765507921231254 -0.17307797428030058384
| 32> H  -3.53207313142267764761 -2.59532207843492290777 -1.81125676374193900209
| 33> H  1.01832610758350705638 -1.45089801275446084183 -2.15845113882072148215
| 34> H  2.51873600518737505993 0.20527252462340550565 -1.11603578833145888893
| 35> H  -0.41588131527234795115 3.04202641235919335472 3.06824842669455311039
| 36> H  1.95908711322932349574 3.40621345411626830213 2.38380862360505396680
| 37> H  2.87842928370989215026 1.99305522810478308315 0.53678791133427639082
| 38> *
| 39> 
| 40>                          ****END OF INPUT****
================================================================================

                       *****************************
                       * Geometry Optimization Run *
                       *****************************

Geometry optimization settings:
Update method            Update   .... BFGS
Choice of coordinates    CoordSys .... (2022) Redundant Internals
Initial Hessian          InHess   .... Almloef's Model
Max. no of cycles        MaxIter  .... 102

Convergence Tolerances:
Energy Change            TolE     ....  5.0000e-06 Eh
Max. Gradient            TolMAXG  ....  3.0000e-04 Eh/bohr
RMS Gradient             TolRMSG  ....  1.0000e-04 Eh/bohr
Max. Displacement        TolMAXD  ....  4.0000e-03 bohr
RMS Displacement         TolRMSD  ....  2.0000e-03 bohr
Strict Convergence                .... False

------------------------------------------------------------------------------
                        ORCA OPTIMIZATION COORDINATE SETUP
------------------------------------------------------------------------------

The optimization will be done in redundant internal coordinates (2022)
Making redundant internal coordinates   ...  (2022 redundants) done
Evaluating the initial hessian          ...  (Almloef) done
Evaluating the coordinates              ...  done
Calculating the B-matrix                .... done
Calculating the G-matrix                .... done
Diagonalizing the G-matrix              .... done
Small eigenvalue found = 4.906e-03
Small eigenvalue found = 1.039e-02
Small eigenvalue found = 2.431e-02
The first mode is                       ....   78
The number of degrees of freedom        ....   96

    -----------------------------------------------------------------
                    Redundant Internal Coordinates


    -----------------------------------------------------------------
         Definition                    Initial Value    Approx d2E/dq
    -----------------------------------------------------------------
      1. B(C   1,C   0)                  1.3930         0.617971   
      2. B(C   2,C   1)                  1.3713         0.669311   
      3. B(C   3,C   0)                  1.3783         0.652181   
      4. B(C   4,C   3)                  1.4101         0.580300   
      5. B(O   5,C   3)                  1.3861         0.567584   
      6. B(C   6,C   4)                  1.4162         0.567374   
      7. B(C   6,C   2)                  1.4034         0.594745   
      8. B(C   7,C   6)                  1.4256         0.548246   
      9. B(C   8,C   7)                  1.3517         0.719124   
     10. B(C   9,C   4)                  1.4404         0.519232   
     11. B(C  10,C   9)                  1.4168         0.566298   
     12. B(C  10,C   8)                  1.4222         0.555194   
     13. B(N  11,C   9)                  1.3413         0.669224   
     14. B(C  12,N  11)                  1.3110         0.748000   
     15. B(C  13,C  12)                  1.3963         0.610554   
     16. B(C  14,C  13)                  1.3733         0.664273   
     17. B(C  14,C  10)                  1.4037         0.594172   
     18. B(C  15,O   5)                  1.3614         0.621557   
     19. B(O  16,C  15)                  1.2249         1.026173   
     20. B(N  17,C  15)                  1.3345         0.686040   
     21. B(C  18,N  17)                  1.4462         0.455264   
     22. B(C  19,N  17)                  1.4496         0.449527   
     23. B(H  20,C  19)                  1.0912         0.358553   
     24. B(H  21,C  19)                  1.0915         0.358121   
     25. B(H  22,C  19)                  1.0846         0.367283   
     26. B(H  23,C  18)                  1.0851         0.366701   
     27. B(H  24,C  18)                  1.0897         0.360511   
     28. B(H  25,C  18)                  1.0911         0.358674   
     29. B(H  26,C   2)                  1.0789         0.375121   
     30. B(H  27,C   0)                  1.0787         0.375342   
     31. B(H  28,C   1)                  1.0782         0.375985   
     32. B(H  29,C   7)                  1.0792         0.374623   
     33. B(H  30,C   8)                  1.0797         0.373949   
     34. B(H  31,C  12)                  1.0818         0.371156   
     35. B(H  32,H  21)                  4.6215         0.000000   
     36. B(H  32,C  13)                  1.0778         0.376636   
     37. B(H  33,C  14)                  1.0803         0.373130   
     38. A(C   1,C   0,C   3)          120.4459         0.437782   
     39. A(C   3,C   0,H  27)          118.6041         0.358465   
     40. A(C   1,C   0,H  27)          120.9471         0.355199   
     41. A(C   2,C   1,H  28)          120.6953         0.360156   
     42. A(C   0,C   1,C   2)          119.8535         0.439835   
     43. A(C   0,C   1,H  28)          119.4322         0.355302   
     44. A(C   1,C   2,H  26)          120.5952         0.360015   
     45. A(C   1,C   2,C   6)          120.7590         0.436806   
     46. A(C   6,C   2,H  26)          118.6455         0.352866   
     47. A(C   4,C   3,O   5)          122.0716         0.419466   
     48. A(C   0,C   3,C   4)          121.1284         0.432852   
     49. A(C   0,C   3,O   5)          116.7914         0.428317   
     50. A(C   3,C   4,C   9)          123.5983         0.415560   
     51. A(C   3,C   4,C   6)          117.6848         0.422180   
     52. A(C   6,C   4,C   9)          118.7166         0.413899   
     53. A(C   3,O   5,C  15)          117.1918         0.421881   
     54. A(C   4,C   6,C   7)          119.7211         0.417922   
     55. A(C   2,C   6,C   7)          120.2790         0.421448   
     56. A(C   2,C   6,C   4)          119.9974         0.424039   
     57. A(C   6,C   7,H  29)          117.7410         0.347971   
     58. A(C   6,C   7,C   8)          121.4613         0.436049   
     59. A(C   8,C   7,H  29)          120.7907         0.364372   
     60. A(C   7,C   8,H  30)          121.3474         0.364260   
     61. A(C  10,C   8,H  30)          118.1029         0.348604   
     62. A(C   7,C   8,C  10)          120.5421         0.437040   
     63. A(C   4,C   9,C  10)          119.3983         0.413760   
     64. A(C  10,C   9,N  11)          121.1957         0.430129   
     65. A(C   4,C   9,N  11)          119.3973         0.423494   
     66. A(C   9,C  10,C  14)          117.9678         0.423822   
     67. A(C   8,C  10,C  14)          122.1039         0.422325   
     68. A(C   8,C  10,C   9)          119.9199         0.418719   
     69. A(C   9,N  11,C  12)          119.4141         0.449316   
     70. A(N  11,C  12,H  31)          115.1723         0.363971   
     71. A(N  11,C  12,C  13)          123.7944         0.444839   
     72. A(C  13,C  12,H  31)          121.0322         0.353800   
     73. A(C  12,C  13,H  32)          120.3294         0.354680   
     74. A(C  12,C  13,C  14)          117.9557         0.438279   
     75. A(C  14,C  13,H  32)          121.7082         0.359799   
     76. A(C  10,C  14,H  33)          119.1570         0.352491   
     77. A(C  10,C  14,C  13)          119.5639         0.436136   
     78. A(C  13,C  14,H  33)          121.2785         0.359227   
     79. A(O  16,C  15,N  17)          123.7292         0.478228   
     80. A(O   5,C  15,N  17)          113.1290         0.436473   
     81. A(O   5,C  15,O  16)          122.8483         0.469628   
     82. A(C  18,N  17,C  19)          117.5923         0.383281   
     83. A(C  15,N  17,C  19)          117.9001         0.411901   
     84. A(C  15,N  17,C  18)          124.0591         0.412830   
     85. A(H  24,C  18,H  25)          109.5027         0.290710   
     86. A(H  23,C  18,H  25)          109.0873         0.291489   
     87. A(N  17,C  18,H  25)          110.0510         0.332847   
     88. A(H  23,C  18,H  24)          109.4927         0.291723   
     89. A(N  17,C  18,H  24)          109.1796         0.333129   
     90. A(N  17,C  18,H  23)          109.5137         0.334072   
     91. A(H  21,C  19,H  22)          109.9304         0.291491   
     92. A(H  20,C  19,H  22)          109.8272         0.291546   
     93. A(N  17,C  19,H  22)          108.7318         0.333457   
     94. A(H  20,C  19,H  21)          107.8825         0.290391   
     95. A(N  17,C  19,H  21)          110.1903         0.332063   
     96. A(N  17,C  19,H  20)          110.2731         0.332130   
     97. D(H  28,C   1,C   0,C   3)    179.6862         0.026415   
     98. D(C   2,C   1,C   0,C   3)     -1.8845         0.026415   
     99. D(H  28,C   1,C   0,H  27)     -0.9393         0.026415   
    100. D(C   2,C   1,C   0,H  27)    177.4901         0.026415   
    101. D(C   6,C   2,C   1,C   0)      2.0150         0.031325   
    102. D(H  26,C   2,C   1,C   0)   -177.7850         0.031325   
    103. D(C   6,C   2,C   1,H  28)   -179.5759         0.031325   
    104. D(H  26,C   2,C   1,H  28)      0.6242         0.031325   
    105. D(O   5,C   3,C   0,C   1)    179.9980         0.029629   
    106. D(C   4,C   3,C   0,H  27)    179.5647         0.029629   
    107. D(C   4,C   3,C   0,C   1)     -1.0463         0.029629   
    108. D(O   5,C   3,C   0,H  27)      0.6090         0.029629   
    109. D(C   6,C   4,C   3,O   5)   -177.3932         0.023137   
    110. D(C   9,C   4,C   3,C   0)   -176.5108         0.023137   
    111. D(C   9,C   4,C   3,O   5)      2.3891         0.023137   
    112. D(C   6,C   4,C   3,C   0)      3.7069         0.023137   
    113. D(C  15,O   5,C   3,C   4)     56.7060         0.023373   
    114. D(C  15,O   5,C   3,C   0)   -124.3489         0.023373   
    115. D(C   7,C   6,C   4,C   9)     -3.9030         0.022074   
    116. D(C   7,C   6,C   4,C   3)    175.8903         0.022074   
    117. D(C   2,C   6,C   4,C   9)    176.6656         0.022074   
    118. D(C   2,C   6,C   4,C   3)     -3.5412         0.022074   
    119. D(C   7,C   6,C   2,H  26)      1.1248         0.024362   
    120. D(C   7,C   6,C   2,C   1)   -178.6790         0.024362   
    121. D(C   4,C   6,C   2,H  26)   -179.4470         0.024362   
    122. D(C   4,C   6,C   2,C   1)      0.7492         0.024362   
    123. D(H  29,C   7,C   6,C   4)   -179.3276         0.020558   
    124. D(H  29,C   7,C   6,C   2)      0.1022         0.020558   
    125. D(C   8,C   7,C   6,C   4)     -0.2843         0.020558   
    126. D(C   8,C   7,C   6,C   2)    179.1455         0.020558   
    127. D(C  10,C   8,C   7,C   6)      2.6479         0.036593   
    128. D(H  30,C   8,C   7,H  29)      0.6430         0.036593   
    129. D(H  30,C   8,C   7,C   6)   -178.3713         0.036593   
    130. D(C  10,C   8,C   7,H  29)   -178.3378         0.036593   
    131. D(N  11,C   9,C   4,C   6)   -173.2043         0.018385   
    132. D(N  11,C   9,C   4,C   3)      7.0155         0.018385   
    133. D(C  10,C   9,C   4,C   6)      5.7337         0.018385   
    134. D(C  10,C   9,C   4,C   3)   -174.0465         0.018385   
    135. D(C  14,C  10,C   9,N  11)     -3.5493         0.021987   
    136. D(C  14,C  10,C   9,C   4)    177.5323         0.021987   
    137. D(C   8,C  10,C   9,N  11)    175.4217         0.021987   
    138. D(C   8,C  10,C   9,C   4)     -3.4967         0.021987   
    139. D(C  14,C  10,C   8,H  30)     -0.8037         0.021100   
    140. D(C  14,C  10,C   8,C   7)    178.2095         0.021100   
    141. D(C   9,C  10,C   8,H  30)   -179.7307         0.021100   
    142. D(C   9,C  10,C   8,C   7)     -0.7175         0.021100   
    143. D(C  12,N  11,C   9,C  10)      3.1371         0.033263   
    144. D(C  12,N  11,C   9,C   4)   -177.9445         0.033263   
    145. D(H  31,C  12,N  11,C   9)   -179.9367         0.042469   
    146. D(C  13,C  12,N  11,C   9)     -0.3268         0.042469   
    147. D(H  32,C  13,C  12,H  31)     -1.4749         0.025748   
    148. D(H  32,C  13,C  12,N  11)    178.9370         0.025748   
    149. D(C  14,C  13,C  12,H  31)    177.6009         0.025748   
    150. D(C  14,C  13,C  12,N  11)     -1.9871         0.025748   
    151. D(H  33,C  14,C  13,H  32)      0.7901         0.030820   
    152. D(H  33,C  14,C  13,C  12)   -178.2722         0.030820   
    153. D(C  10,C  14,C  13,H  32)   -179.5056         0.030820   
    154. D(C  10,C  14,C  13,C  12)      1.4320         0.030820   
    155. D(H  33,C  14,C  10,C   9)   -179.1180         0.024313   
    156. D(H  33,C  14,C  10,C   8)      1.9349         0.024313   
    157. D(C  13,C  14,C  10,C   9)      1.1714         0.024313   
    158. D(C  13,C  14,C  10,C   8)   -177.7756         0.024313   
    159. D(O  16,C  15,O   5,C   3)     16.7270         0.028355   
    160. D(N  17,C  15,O   5,C   3)   -169.2887         0.028355   
    161. D(C  19,N  17,C  15,O  16)     -5.4194         0.038793   
    162. D(C  19,N  17,C  15,O   5)   -179.3424         0.038793   
    163. D(C  18,N  17,C  15,O  16)   -177.5346         0.038793   
    164. D(C  18,N  17,C  15,O   5)      8.5423         0.038793   
    165. D(H  25,C  18,N  17,C  15)    109.0593         0.017687   
    166. D(H  24,C  18,N  17,C  19)     57.1357         0.017687   
    167. D(H  24,C  18,N  17,C  15)   -130.7267         0.017687   
    168. D(H  23,C  18,N  17,C  19)    177.0098         0.017687   
    169. D(H  23,C  18,N  17,C  15)    -10.8525         0.017687   
    170. D(H  22,C  19,N  17,C  15)   -172.5487         0.017238   
    171. D(H  21,C  19,N  17,C  18)    120.6284         0.017238   
    172. D(H  21,C  19,N  17,C  15)    -52.0040         0.017238   
    173. D(H  20,C  19,N  17,C  18)   -120.3846         0.017238   
    174. D(H  20,C  19,N  17,C  15)     66.9829         0.017238   
    -----------------------------------------------------------------

Number of atoms                         .... 34
Number of degrees of freedom            .... 174


         *************************************************************
         *                GEOMETRY OPTIMIZATION CYCLE   1            *
         *************************************************************
---------------------------------
CARTESIAN COORDINATES (ANGSTROEM)
---------------------------------
  C     -3.428356   -0.981896   -0.409372
  C     -2.889434   -1.871829   -1.335657
  C     -1.558439   -1.799305   -1.657465
  C     -2.624820   -0.052790    0.215822
  C     -1.240650    0.008019   -0.046458
  O     -3.239847    0.795090    1.123693
  C     -0.718917   -0.864076   -1.032860
  C      0.657138   -0.778554   -1.395398
  C      1.483076    0.124610   -0.821567
  C     -0.340225    0.906991    0.628654
  C      1.010498    0.984152    0.208175
  N     -0.790448    1.640013    1.657764
  C      0.017684    2.487993    2.246487
  C      1.348697    2.680767    1.871211
  C      1.848584    1.908035    0.851891
  C     -3.100310    2.133623    0.918002
  O     -2.733902    2.606983   -0.150712
  N     -3.522773    2.869162    1.948303
  C     -3.908406    2.321717    3.230095
  C     -3.434982    4.311536    1.833209
  H     -4.121399    4.672034    1.065401
  H     -2.424372    4.605568    1.544098
  H     -3.688987    4.753455    2.790600
  H     -3.983790    1.241881    3.155147
  H     -4.874457    2.734435    3.519629
  H     -3.162735    2.575783    3.985000
  H     -1.136132   -2.459045   -2.399336
  H     -4.480767   -0.996858   -0.173078
  H     -3.532073   -2.595322   -1.811257
  H      1.018326   -1.450898   -2.158451
  H      2.518736    0.205273   -1.116036
  H     -0.415881    3.042026    3.068248
  H      1.959087    3.406213    2.383809
  H      2.878429    1.993055    0.536788

----------------------------
CARTESIAN COORDINATES (A.U.)
----------------------------
  NO LB      ZA    FRAG     MASS         X           Y           Z
   0 C     6.0000    0    12.011   -6.478654   -1.855515   -0.773600
   1 C     6.0000    0    12.011   -5.460239   -3.537244   -2.524025
   2 C     6.0000    0    12.011   -2.945022   -3.400194   -3.132154
   3 C     6.0000    0    12.011   -4.960190   -0.099759    0.407844
   4 C     6.0000    0    12.011   -2.344490    0.015154   -0.087792
   5 O     8.0000    0    15.999   -6.122424    1.502502    2.123473
   6 C     6.0000    0    12.011   -1.358555   -1.632866   -1.951822
   7 C     6.0000    0    12.011    1.241810   -1.471254   -2.636920
   8 C     6.0000    0    12.011    2.802607    0.235479   -1.552537
   9 C     6.0000    0    12.011   -0.642932    1.713964    1.187984
  10 C     6.0000    0    12.011    1.909564    1.859779    0.393394
  11 N     7.0000    0    14.007   -1.493731    3.099175    3.132720
  12 C     6.0000    0    12.011    0.033417    4.701625    4.245246
  13 C     6.0000    0    12.011    2.548667    5.065915    3.536077
  14 C     6.0000    0    12.011    3.493317    3.605664    1.609841
  15 C     6.0000    0    12.011   -5.858738    4.031963    1.734772
  16 O     8.0000    0    15.999   -5.166327    4.926483   -0.284805
  17 N     7.0000    0    14.007   -6.657076    5.421930    3.681759
  18 C     6.0000    0    12.011   -7.385816    4.387409    6.103995
  19 C     6.0000    0    12.011   -6.491176    8.147623    3.464263
  20 H     1.0000    0     1.008   -7.788316    8.828865    2.013315
  21 H     1.0000    0     1.008   -4.581399    8.703261    2.917922
  22 H     1.0000    0     1.008   -6.971176    8.982728    5.273469
  23 H     1.0000    0     1.008   -7.528272    2.346815    5.962365
  24 H     1.0000    0     1.008   -9.211390    5.167334    6.651136
  25 H     1.0000    0     1.008   -5.976702    4.867524    7.530558
  26 H     1.0000    0     1.008   -2.146979   -4.646922   -4.534088
  27 H     1.0000    0     1.008   -8.467422   -1.883788   -0.327070
  28 H     1.0000    0     1.008   -6.674651   -4.904448   -3.422779
  29 H     1.0000    0     1.008    1.924357   -2.741800   -4.078882
  30 H     1.0000    0     1.008    4.759721    0.387909   -2.109002
  31 H     1.0000    0     1.008   -0.785902    5.748597    5.798149
  32 H     1.0000    0     1.008    3.702138    6.436811    4.504745
  33 H     1.0000    0     1.008    5.439443    3.766329    1.014382

--------------------------------
INTERNAL COORDINATES (ANGSTROEM)
--------------------------------
 C      0   0   0     0.000000000000     0.00000000     0.00000000
 C      1   0   0     1.392989897340     0.00000000     0.00000000
 C      2   1   0     1.371265627016   119.85351027     0.00000000
 C      1   2   3     1.378323351641   120.44588675   358.11554582
 C      4   1   2     1.410110898069   121.12840806   358.95371206
 O      4   1   2     1.386142155270   116.79139297   179.99797543
 C      3   2   1     1.403418268782   120.75904372     2.01499647
 C      7   3   2     1.425578263482   120.27902033   181.32099678
 C      8   7   3     1.351725227864   121.46130811   179.14549751
 C      5   4   1     1.440379166230   123.59827424   183.48917791
 C     10   5   4     1.416759598411   119.39831043   185.95353517
 N     10   5   4     1.341301114303   119.39727323     7.01549011
 C     12  10   5     1.311008494545   119.41406821   182.05547086
 C     13  12  10     1.396276974075   123.79442179   359.67323112
 C     14  13  12     1.373322357817   117.95571304   358.01290052
 C      6   4   1     1.361414943693   117.19176900   235.65110919
 O     16   6   4     1.224938542690   122.84828776    16.72701430
 N     16   6   4     1.334545775332   113.12895689   190.71133024
 C     18  16   6     1.446167609902   124.05912843     8.54233257
 C     18  16   6     1.449619695574   117.90012129   180.65758809
 H     20  18  16     1.091172048538   110.27313062    66.98290701
 H     20  18  16     1.091500257421   110.19030572   307.99595118
 H     20  18  16     1.084623606444   108.73178889   187.45134023
 H     19  18  16     1.085055330770   109.51370027   349.14749140
 H     19  18  16     1.089689238607   109.17963500   229.27331581
 H     19  18  16     1.091080109299   110.05101970   109.05925175
 H      3   2   1     1.078875842715   120.59517424   182.21503875
 H      1   2   3     1.078715536714   120.94712232   177.49006335
 H      2   1   3     1.078249661961   119.43224998   181.57067849
 H      8   7   3     1.079237397061   117.74097638     0.10222715
 H      9   8   7     1.079727094988   121.34743218   181.62871873
 H     13  12  10     1.081768347432   115.17225705   180.06329211
 H     14  13  12     1.077778198603   120.32942527   178.93704744
 H     15  14  13     1.080324036408   121.27850646   181.72775970

---------------------------
INTERNAL COORDINATES (A.U.)
---------------------------
 C      0   0   0     0.000000000000     0.00000000     0.00000000
 C      1   0   0     2.632369413291     0.00000000     0.00000000
 C      2   1   0     2.591316491921   119.85351027     0.00000000
 C      1   2   3     2.604653658590   120.44588675   358.11554582
 C      4   1   2     2.664723415807   121.12840806   358.95371206
 O      4   1   2     2.619429056144   116.79139297   179.99797543
 C      3   2   1     2.652076179340   120.75904372     2.01499647
 C      7   3   2     2.693952500452   120.27902033   181.32099678
 C      8   7   3     2.554390488976   121.46130811   179.14549751
 C      5   4   1     2.721922153180   123.59827424   183.48917791
 C     10   5   4     2.677287638600   119.39831043   185.95353517
 N     10   5   4     2.534691769156   119.39727323     7.01549011
 C     12  10   5     2.477447013933   119.41406821   182.05547086
 C     13  12  10     2.638581088103   123.79442179   359.67323112
 C     14  13  12     2.595203149866   117.95571304   358.01290052
 C      6   4   1     2.572701398208   117.19176900   235.65110919
 O     16   6   4     2.314798376569   122.84828776    16.72701430
 N     16   6   4     2.521926028559   113.12895689   190.71133024
 C     18  16   6     2.732860726462   124.05912843     8.54233257
 C     18  16   6     2.739384222973   117.90012129   180.65758809
 H     20  18  16     2.062016336727   110.27313062    66.98290701
 H     20  18  16     2.062636561631   110.19030572   307.99595118
 H     20  18  16     2.049641574566   108.73178889   187.45134023
 H     19  18  16     2.050457415307   109.51370027   349.14749140
 H     19  18  16     2.059214232048   109.17963500   229.27331581
 H     19  18  16     2.061842596744   110.05101970   109.05925175
 H      3   2   1     2.038779875235   120.59517424   182.21503875
 H      1   2   3     2.038476940796   120.94712232   177.49006335
 H      2   1   3     2.037596565100   119.43224998   181.57067849
 H      8   7   3     2.039463113931   117.74097638     0.10222715
 H      9   8   7     2.040388508902   121.34743218   181.62871873
 H     13  12  10     2.044245916990   115.17225705   180.06329211
 H     14  13  12     2.036705628471   120.32942527   178.93704744
 H     15  14  13     2.041516564704   121.27850646   181.72775970

---------------------
BASIS SET INFORMATION
---------------------
There are 4 groups of distinct atoms

 Group   1 Type C   : 11s5p1d contracted to 4s3p1d pattern {6311/311/1}
 Group   2 Type O   : 11s5p1d contracted to 4s3p1d pattern {6311/311/1}
 Group   3 Type N   : 11s5p1d contracted to 4s3p1d pattern {6311/311/1}
 Group   4 Type H   : 5s contracted to 3s pattern {311}

Atom   0C    basis set group =>   1
Atom   1C    basis set group =>   1
Atom   2C    basis set group =>   1
Atom   3C    basis set group =>   1
Atom   4C    basis set group =>   1
Atom   5O    basis set group =>   2
Atom   6C    basis set group =>   1
Atom   7C    basis set group =>   1
Atom   8C    basis set group =>   1
Atom   9C    basis set group =>   1
Atom  10C    basis set group =>   1
Atom  11N    basis set group =>   3
Atom  12C    basis set group =>   1
Atom  13C    basis set group =>   1
Atom  14C    basis set group =>   1
Atom  15C    basis set group =>   1
Atom  16O    basis set group =>   2
Atom  17N    basis set group =>   3
Atom  18C    basis set group =>   1
Atom  19C    basis set group =>   1
Atom  20H    basis set group =>   4
Atom  21H    basis set group =>   4
Atom  22H    basis set group =>   4
Atom  23H    basis set group =>   4
Atom  24H    basis set group =>   4
Atom  25H    basis set group =>   4
Atom  26H    basis set group =>   4
Atom  27H    basis set group =>   4
Atom  28H    basis set group =>   4
Atom  29H    basis set group =>   4
Atom  30H    basis set group =>   4
Atom  31H    basis set group =>   4
Atom  32H    basis set group =>   4
Atom  33H    basis set group =>   4
---------------------------------
AUXILIARY/J BASIS SET INFORMATION
---------------------------------
There are 4 groups of distinct atoms

 Group   1 Type C   : 12s5p4d2f1g contracted to 6s4p3d1f1g pattern {711111/2111/211/2/1}
 Group   2 Type O   : 12s5p4d2f1g contracted to 6s4p3d1f1g pattern {711111/2111/211/2/1}
 Group   3 Type N   : 12s5p4d2f1g contracted to 6s4p3d1f1g pattern {711111/2111/211/2/1}
 Group   4 Type H   : 5s2p1d contracted to 3s1p1d pattern {311/2/1}

Atom   0C    basis set group =>   1
Atom   1C    basis set group =>   1
Atom   2C    basis set group =>   1
Atom   3C    basis set group =>   1
Atom   4C    basis set group =>   1
Atom   5O    basis set group =>   2
Atom   6C    basis set group =>   1
Atom   7C    basis set group =>   1
Atom   8C    basis set group =>   1
Atom   9C    basis set group =>   1
Atom  10C    basis set group =>   1
Atom  11N    basis set group =>   3
Atom  12C    basis set group =>   1
Atom  13C    basis set group =>   1
Atom  14C    basis set group =>   1
Atom  15C    basis set group =>   1
Atom  16O    basis set group =>   2
Atom  17N    basis set group =>   3
Atom  18C    basis set group =>   1
Atom  19C    basis set group =>   1
Atom  20H    basis set group =>   4
Atom  21H    basis set group =>   4
Atom  22H    basis set group =>   4
Atom  23H    basis set group =>   4
Atom  24H    basis set group =>   4
Atom  25H    basis set group =>   4
Atom  26H    basis set group =>   4
Atom  27H    basis set group =>   4
Atom  28H    basis set group =>   4
Atom  29H    basis set group =>   4
Atom  30H    basis set group =>   4
Atom  31H    basis set group =>   4
Atom  32H    basis set group =>   4
Atom  33H    basis set group =>   4
------------------------------------------------------------------------------
                             ORCA STARTUP CALCULATIONS
                           -- RI-GTO INTEGRALS CHOSEN --
------------------------------------------------------------------------------
------------------------------------------------------------------------------
                   ___                                                        
                  /   \      - P O W E R E D   B Y -                         
                 /     \                                                     
                 |  |  |   _    _      __       _____    __    __             
                 |  |  |  | |  | |    /  \     |  _  \  |  |  /  |          
                  \  \/   | |  | |   /    \    | | | |  |  | /  /          
                 / \  \   | |__| |  /  /\  \   | |_| |  |  |/  /          
                |  |  |   |  __  | /  /__\  \  |    /   |      \           
                |  |  |   | |  | | |   __   |  |    \   |  |\   \          
                \     /   | |  | | |  |  |  |  | |\  \  |  | \   \       
                 \___/    |_|  |_| |__|  |__|  |_| \__\ |__|  \__/        
                                                                              
                      - O R C A' S   B I G   F R I E N D -                    
                                      &                                       
                       - I N T E G R A L  F E E D E R -                       
                                                                              
 v1 FN, 2020, v2 2021, v3 2022-2024                                           
------------------------------------------------------------------------------


----------------------
SHARK INTEGRAL PACKAGE
----------------------

Number of atoms                             ...     34
Number of basis functions                   ...    402
Number of shells                            ...    202
Maximum angular momentum                    ...      2
Integral batch strategy                     ... SHARK/LIBINT Hybrid
RI-J (if used) integral strategy            ... SPLIT-RIJ (Revised 2003 algorithm where possible)
Printlevel                                  ...      1
Contraction scheme used                     ... SEGMENTED contraction
Prescreening option                         ... SCHWARTZ
   Thresh                                   ... 2.500e-11
   Tcut                                     ... 2.500e-12
   Tpresel                                  ... 2.500e-12 
Coulomb Range Separation                    ... NOT USED
Exchange Range Separation                   ... NOT USED
Multipole approximations                    ... NOT USED
Finite Nucleus Model                        ... NOT USED
CABS basis                                  ... NOT available
Auxiliary Coulomb fitting basis             ... AVAILABLE
   # of basis functions in Aux-J            ...   1134
   # of shells in Aux-J                     ...    370
   Maximum angular momentum in Aux-J        ...      4
Auxiliary J/K fitting basis                 ... NOT available
Auxiliary Correlation fitting basis         ... NOT available
Auxiliary 'external' fitting basis          ... NOT available

Checking pre-screening integrals            ... done (  0.0 sec) Dimension = 202
Check shell pair data                       ... done (  0.0 sec)
Shell pair information
Shell pair cut-off parameter TPreSel        ...   2.5e-12
Total number of shell pairs                 ...     20503
Shell pairs after pre-screening             ...     15421
Total number of primitive shell pairs       ...     84717
Primitive shell pairs kept                  ...     38712
          la=0 lb=0:   5272 shell pairs
          la=1 lb=0:   5705 shell pairs
          la=1 lb=1:   1557 shell pairs
          la=2 lb=0:   1735 shell pairs
          la=2 lb=1:    982 shell pairs
          la=2 lb=2:    170 shell pairs

Calculating one electron integrals          ... done (  0.1 sec)
Calculating RI/J V-Matrix + Cholesky decomp.... done (  0.2 sec)
Calculating Nuclear repulsion               ... done (  0.0 sec) ENN=   1547.082615825113 Eh

Diagonalization of the overlap matrix:
Smallest eigenvalue                        ... 7.849e-05
Time for diagonalization                   ...    0.025 sec
Threshold for overlap eigenvalues          ... 1.000e-07
Number of eigenvalues below threshold      ... 0
Time for construction of square roots      ...    0.021 sec
Total time needed                          ...    0.064 sec

-------------------
DFT GRID GENERATION
-------------------

General Integration Accuracy     IntAcc      ... 4.388
Radial Grid Type                 RadialGrid  ... OptM3 with GC (2021)
Angular Grid (max. ang.)         AngularGrid ... 4 (Lebedev-302)
Angular grid pruning method      GridPruning ... 4 (adaptive)
Weight generation scheme         WeightScheme... mBecke (2022)
Basis function cutoff            BFCut       ... 1.0000e-11
Integration weight cutoff        WCut        ... 1.0000e-14
Partially contracted basis set               ... off
Rotationally invariant grid construction     ... off
Angular grids for H and He will be reduced by one unit

Total number of grid points                  ...   164193
Total number of batches                      ...     2582
Average number of points per batch           ...       63
Average number of grid points per atom       ...     4829

--------------------
COSX GRID GENERATION
--------------------

GRIDX 1
-------
General Integration Accuracy     IntAcc      ... 3.816
Radial Grid Type                 RadialGrid  ... OptM3 with GC (2021)
Angular Grid (max. ang.)         AngularGrid ... 1 (Lebedev-50)
Angular grid pruning method      GridPruning ... 4 (adaptive)
Weight generation scheme         WeightScheme... mBecke (2022)
Basis function cutoff            BFCut       ... 1.0000e-11
Integration weight cutoff        WCut        ... 1.0000e-14
Partially contracted basis set               ... on
Rotationally invariant grid construction     ... off
Angular grids for H and He will be reduced by one unit

Total number of grid points                  ...    20869
Total number of batches                      ...      180
Average number of points per batch           ...      115
Average number of grid points per atom       ...      614
UseSFitting                                  ... on

GRIDX 2
-------
General Integration Accuracy     IntAcc      ... 4.020
Radial Grid Type                 RadialGrid  ... OptM3 with GC (2021)
Angular Grid (max. ang.)         AngularGrid ... 2 (Lebedev-110)
Angular grid pruning method      GridPruning ... 4 (adaptive)
Weight generation scheme         WeightScheme... mBecke (2022)
Basis function cutoff            BFCut       ... 1.0000e-11
Integration weight cutoff        WCut        ... 1.0000e-14
Partially contracted basis set               ... on
Rotationally invariant grid construction     ... off
Angular grids for H and He will be reduced by one unit

Total number of grid points                  ...    45525
Total number of batches                      ...      372
Average number of points per batch           ...      122
Average number of grid points per atom       ...     1339
UseSFitting                                  ... on

GRIDX 3
-------
General Integration Accuracy     IntAcc      ... 4.338
Radial Grid Type                 RadialGrid  ... OptM3 with GC (2021)
Angular Grid (max. ang.)         AngularGrid ... 3 (Lebedev-194)
Angular grid pruning method      GridPruning ... 4 (adaptive)
Weight generation scheme         WeightScheme... mBecke (2022)
Basis function cutoff            BFCut       ... 1.0000e-11
Integration weight cutoff        WCut        ... 1.0000e-14
Partially contracted basis set               ... on
Rotationally invariant grid construction     ... off
Angular grids for H and He will be reduced by one unit

Total number of grid points                  ...    99666
Total number of batches                      ...      797
Average number of points per batch           ...      125
Average number of grid points per atom       ...     2931
UseSFitting                                  ... on
Initializing property integral containers    ... done (  0.0 sec)

SHARK setup successfully completed in   6.2 seconds

Maximum memory used throughout the entire STARTUP-calculation: 81.4 MB
-------------------------------------------------------------------------------
                                 ORCA GUESS
                   Start orbitals & Density for SCF / CASSCF
-------------------------------------------------------------------------------

------------
SCF SETTINGS
------------
Hamiltonian:
 Density Functional     Method          .... DFT(GTOs)
 Exchange Functional    Exchange        .... B88
   X-Alpha parameter    XAlpha          ....  0.666667
   Becke's b parameter  XBeta           ....  0.004200
 Correlation Functional Correlation     .... LYP
 LDA part of GGA corr.  LDAOpt          .... VWN-3
 Gradients option       PostSCFGGA      .... off
 Hybrid DFT is turned on
   Fraction HF Exchange ScalHFX         ....  0.200000
   Scaling of DF-GGA-X  ScalDFX         ....  0.720000
   Scaling of DF-GGA-C  ScalDFC         ....  0.810000
   Scaling of DF-LDA-C  ScalLDAC        ....  1.000000
   Perturbative correction              ....  0.000000
   NL short-range parameter             ....  4.800000
 RI-approximation to the Coulomb term is turned on
   Number of AuxJ basis functions       .... 1134
   RIJ-COSX (HFX calculated with COS-X)).... on


General Settings:
 Integral files         IntName         .... 3
 Hartree-Fock type      HFTyp           .... RHF
 Total Charge           Charge          ....    0
 Multiplicity           Mult            ....    1
 Number of Electrons    NEL             ....  140
 Basis Dimension        Dim             ....  402
 Nuclear Repulsion      ENuc            ....   1547.0826158251 Eh

Convergence Acceleration:
 AO-DIIS                CNVDIIS         .... on
   Start iteration      DIISMaxIt       ....    12
   Startup error        DIISStart       ....  0.200000
   # of expansion vecs  DIISMaxEq       ....     5
   Bias factor          DIISBfac        ....   1.050
   Max. coefficient     DIISMaxC        ....  10.000
 MO-DIIS                CNVKDIIS        .... off
 Trust-Rad. Augm. Hess. CNVTRAH         .... auto
   Auto Start mean grad. ratio tolernc. ....  1.125000
   Auto Start start iteration           ....    50
   Auto Start num. interpolation iter.  ....    10
   Max. Number of Micro iterations      ....    24
   Max. Number of Macro iterations      .... Maxiter - #DIIS iter
   Number of Davidson start vectors     ....     2
   Converg. threshold    (grad. norm)   ....   1.000e-05
   Grad. Scal. Fac. for Micro threshold ....   0.100
   Minimum threshold for Micro iter.    ....   1.000e-02
   NR start threshold (gradient norm)   ....   1.000e-04
   Initial trust radius                 ....   0.400
   Minimum AH scaling param. (alpha)    ....   1.000
   Maximum AH scaling param. (alpha)    .... 1000.000
   Quad. conv. algorithm                .... NR
   White noise on init. David. guess    .... on
   Maximum white noise                  ....   0.010
   Pseudo random numbers                .... off
   Inactive MOs                         .... canonical
   Orbital update algorithm             .... Taylor
   Preconditioner                       .... Diag
   Full preconditioner red. dimension   ....   250
 SOSCF                  CNVSOSCF        .... on
   Start iteration      SOSCFMaxIt      ....   150
   Startup grad/error   SOSCFStart      ....  0.003300
   Hessian update       SOSCFHessUp     .... L-BFGS
 Level Shifting         CNVShift        .... on
   Level shift para.    LevelShift      ....    0.2500
   Turn off err/grad.   ShiftErr        ....    0.0010
 Zerner damping         CNVZerner       .... off
 Static damping         CNVDamp         .... on
   Fraction old density DampFac         ....    0.7000
   Max. Damping (<1)    DampMax         ....    0.9800
   Min. Damping (>=0)   DampMin         ....    0.0000
   Turn off err/grad.   DampErr         ....    0.1000

SCF Procedure:
 Maximum # iterations   MaxIter         ....   125
 SCF integral mode      SCFMode         .... Direct
   Integral package                     .... SHARK and LIBINT hybrid scheme
 Reset frequency        DirectResetFreq ....    20
 Integral Threshold     Thresh          ....  2.500e-11 Eh
 Primitive CutOff       TCut            ....  2.500e-12 Eh

Convergence Tolerance:
 Convergence Check Mode ConvCheckMode   .... Total+1el-Energy
 Convergence forced     ConvForced      .... 0
 Energy Change          TolE            ....  1.000e-08 Eh
 1-El. energy change                    ....  1.000e-05 Eh
 Orbital Gradient       TolG            ....  1.000e-05
 Orbital Rotation angle TolX            ....  1.000e-05
 DIIS Error             TolErr          ....  5.000e-07

------------------------------
INITIAL GUESS: MODEL POTENTIAL
------------------------------
Loading Hartree-Fock densities                     ... done
Calculating cut-offs                               ... done
Initializing the effective Hamiltonian             ... done
Setting up the integral package (SHARK)            ... done
Starting the Coulomb interaction                   ... done (   1.0 sec)
Making the grid                                    ... done (   0.6 sec)
Mapping shells                                     ... done
Starting the XC term evaluation                    ... done (   0.6 sec)
  promolecular density results
     # of electrons  =    139.980072454
     EX              =   -116.099417201
     EC              =     -4.794805335
     EX+EC           =   -120.894222535
Transforming the Hamiltonian                       ... done (   0.0 sec)
Diagonalizing the Hamiltonian                      ... done (   0.0 sec)
Back transforming the eigenvectors                 ... done (   0.0 sec)
Now organizing SCF variables                       ... done
                      ------------------
                      INITIAL GUESS DONE (   2.5 sec)
                      ------------------
             **** ENERGY FILE WAS UPDATED (3.en.tmp) ****
Finished Guess after   2.9 sec
Maximum memory used throughout the entire GUESS-calculation: 48.9 MB

-------------------------------------------------------------------------------------------
                                      ORCA LEAN-SCF
                              memory conserving SCF solver
-------------------------------------------------------------------------------------------

--------------------
CPCM SOLVATION MODEL
--------------------
CPCM parameters:
  Epsilon                                         ...      80.1510
  Refrac                                          ...       1.3328
  Rsolv                                           ...       1.3000
  Surface type                                    ... GAUSSIAN VDW
  Discretization scheme                           ... Constant charge density
    Threshold for H atoms                         ...       5.0000 (charges/Ang^2)
    Threshold for non-H atoms                     ...       5.0000 (charges/Ang^2)
  Epsilon function type                           ...         CPCM
Solvent:                                          ... WATER
Radii:
  Scheme                                          ... Element-dependent radii
  Radius for C  used is    3.8550 Bohr (=   2.0400 Ang.)
  Radius for O  used is    3.4469 Bohr (=   1.8240 Ang.)
  Radius for N  used is    3.5149 Bohr (=   1.8600 Ang.)
  Radius for H  used is    2.4944 Bohr (=   1.3200 Ang.)
Calculating surface                               ...        done! (  0.0s)
Cavity surface points                             ...         2961
Cavity Volume                                     ...    2083.3757
Cavity Surface-area                               ...    1045.0560
Calculating surface distance matrix               ...        done! (  0.0s)
Performing Cholesky decomposition & store         ...        done! (  0.9s)
Overall time for CPCM initialization              ...                 0.9s

----------------------------------------D-I-I-S--------------------------------------------
Iteration    Energy (Eh)           Delta-E    RMSDP     MaxDP     DIISErr   Damp  Time(sec)
-------------------------------------------------------------------------------------------
               ***  Starting incremental Fock matrix formation  ***
    1    -877.8349643385124637     0.00e+00  1.85e-03  7.63e-02  3.52e-01  0.700  28.5
    2    -878.0551763757368917    -2.20e-01  1.39e-03  3.63e-02  1.38e-01  0.700  15.5
                               ***Turning on AO-DIIS***
    3    -878.1463453413700790    -9.12e-02  6.23e-04  1.64e-02  4.29e-02  0.700  15.3
    4    -878.2011414216133289    -5.48e-02  9.69e-04  2.22e-02  2.24e-02  0.000  14.7
    5    -878.3198227354134815    -1.19e-01  2.19e-04  6.46e-03  5.20e-03  0.000  15.2
                              *** Initializing SOSCF ***
---------------------------------------S-O-S-C-F--------------------------------------
Iteration    Energy (Eh)           Delta-E    RMSDP     MaxDP     MaxGrad    Time(sec)
--------------------------------------------------------------------------------------
    6    -878.3204024941039734    -5.80e-04  6.22e-05  1.68e-03  2.04e-03    14.8
               *** Restarting incremental Fock matrix formation ***
    7    -878.3204556945295280    -5.32e-05  4.07e-05  1.53e-03  4.59e-04    28.6
    8    -878.3204452540092007     1.04e-05  2.17e-05  9.66e-04  8.68e-04    19.1
    9    -878.3204632241875061    -1.80e-05  3.26e-06  1.05e-04  1.72e-05    18.1
   10    -878.3204631797955244     4.44e-08  1.65e-06  6.99e-05  3.44e-05    15.0
   11    -878.3204632722952283    -9.25e-08  5.34e-07  1.94e-05  4.13e-06    13.7
   12    -878.3204632661311280     6.16e-09  2.88e-07  1.17e-05  4.96e-06    12.0
                 **** Energy Check signals convergence ****

               *****************************************************
               *                     SUCCESS                       *
               *           SCF CONVERGED AFTER  12 CYCLES          *
               *****************************************************

Recomputing exchange energy using gridx3       ... done (   42.611 sec)
Old exchange energy                            :    -23.583863703 Eh
New exchange energy                            :    -23.583889969 Eh
Exchange energy change after final integration :     -0.000026266 Eh
Total energy after final integration           :   -878.320489532 Eh
             **** ENERGY FILE WAS UPDATED (3.en.tmp) ****

----------------
TOTAL SCF ENERGY
----------------

Total Energy       :       -878.32048953204276 Eh          -23900.31559 eV

Components:
Nuclear Repulsion  :       1547.08261582511318 Eh           42098.25821 eV
Electronic Energy  :      -2425.37995861467698 Eh          -65997.94394 eV
One Electron Energy:      -4267.56874899707418 Eh         -116126.44941 eV
Two Electron Energy:       1842.18879038239697 Eh           50128.50547 eV
CPCM Dielectric    :         -0.02312047656696 Eh              -0.62914 eV

Virial components:
Potential Energy   :      -1753.87708118364822 Eh          -47725.42169 eV
Kinetic Energy     :        875.55659165160546 Eh           23825.10610 eV
Virial Ratio       :          2.00315673242231

DFT components:
N(Alpha)           :       69.999875769165 electrons
N(Beta)            :       69.999875769165 electrons
N(Total)           :      139.999751538330 electrons
E(X)               :      -93.742689888194 Eh       
E(C)               :       -6.166089656608 Eh       
E(XC)              :      -99.908779544802 Eh       

CPCM Solvation Model Properties:
Surface-charge          :         -0.02746186859459
Corrected charge        :         -0.00000000000000
Outlying charge corr.   :          0.00004306915397 Eh               0.00117 eV
Free-energy (cav+disp)  :  This term is not implemented in the current solvation scheme

---------------
SCF CONVERGENCE
---------------

  Last Energy change         ...   -6.1641e-09  Tolerance :   1.0000e-08
  Last MAX-Density change    ...    1.1723e-05  Tolerance :   1.0000e-07
  Last RMS-Density change    ...    2.8771e-07  Tolerance :   5.0000e-09
  Last DIIS Error            ...    2.0404e-03  Tolerance :   5.0000e-07
  Last Orbital Gradient      ...    4.9597e-06  Tolerance :   1.0000e-05
  Last Orbital Rotation      ...    9.8433e-06  Tolerance :   1.0000e-05


----------------
ORBITAL ENERGIES
----------------

  NO   OCC          E(Eh)            E(eV) 
   0   2.0000     -19.166737      -521.5534 
   1   2.0000     -19.080457      -519.2056 
   2   2.0000     -14.338872      -390.1805 
   3   2.0000     -14.309126      -389.3711 
   4   2.0000     -10.313445      -280.6431 
   5   2.0000     -10.245800      -278.8024 
   6   2.0000     -10.219920      -278.0982 
   7   2.0000     -10.208639      -277.7912 
   8   2.0000     -10.194215      -277.3987 
   9   2.0000     -10.193522      -277.3798 
  10   2.0000     -10.192627      -277.3555 
  11   2.0000     -10.192241      -277.3450 
  12   2.0000     -10.191638      -277.3286 
  13   2.0000     -10.191201      -277.3167 
  14   2.0000     -10.180969      -277.0383 
  15   2.0000     -10.180699      -277.0309 
  16   2.0000     -10.180377      -277.0221 
  17   2.0000     -10.179974      -277.0112 
  18   2.0000     -10.178602      -276.9738 
  19   2.0000     -10.176249      -276.9098 
  20   2.0000      -1.118991       -30.4493 
  21   2.0000      -1.018282       -27.7089 
  22   2.0000      -0.962316       -26.1859 
  23   2.0000      -0.946090       -25.7444 
  24   2.0000      -0.885302       -24.0903 
  25   2.0000      -0.842159       -22.9163 
  26   2.0000      -0.810772       -22.0622 
  27   2.0000      -0.786192       -21.3934 
  28   2.0000      -0.753695       -20.5091 
  29   2.0000      -0.747187       -20.3320 
  30   2.0000      -0.723283       -19.6815 
  31   2.0000      -0.706391       -19.2219 
  32   2.0000      -0.658355       -17.9148 
  33   2.0000      -0.651278       -17.7222 
  34   2.0000      -0.633475       -17.2377 
  35   2.0000      -0.622905       -16.9501 
  36   2.0000      -0.575486       -15.6598 
  37   2.0000      -0.550511       -14.9802 
  38   2.0000      -0.537687       -14.6312 
  39   2.0000      -0.533568       -14.5191 
  40   2.0000      -0.514955       -14.0126 
  41   2.0000      -0.498806       -13.5732 
  42   2.0000      -0.492270       -13.3953 
  43   2.0000      -0.484429       -13.1820 
  44   2.0000      -0.479803       -13.0561 
  45   2.0000      -0.466410       -12.6917 
  46   2.0000      -0.446796       -12.1579 
  47   2.0000      -0.444423       -12.0934 
  48   2.0000      -0.437583       -11.9072 
  49   2.0000      -0.431217       -11.7340 
  50   2.0000      -0.423701       -11.5295 
  51   2.0000      -0.412390       -11.2217 
  52   2.0000      -0.408283       -11.1099 
  53   2.0000      -0.406233       -11.0542 
  54   2.0000      -0.405331       -11.0296 
  55   2.0000      -0.402796       -10.9606 
  56   2.0000      -0.386918       -10.5286 
  57   2.0000      -0.385589       -10.4924 
  58   2.0000      -0.375604       -10.2207 
  59   2.0000      -0.364674        -9.9233 
  60   2.0000      -0.355916        -9.6850 
  61   2.0000      -0.341637        -9.2964 
  62   2.0000      -0.318333        -8.6623 
  63   2.0000      -0.304723        -8.2919 
  64   2.0000      -0.279802        -7.6138 
  65   2.0000      -0.279135        -7.5956 
  66   2.0000      -0.262481        -7.1425 
  67   2.0000      -0.248386        -6.7589 
  68   2.0000      -0.244444        -6.6517 
  69   2.0000      -0.226353        -6.1594 
  70   0.0000      -0.060415        -1.6440 
  71   0.0000      -0.051477        -1.4008 
  72   0.0000      -0.011869        -0.3230 
  73   0.0000       0.016131         0.4389 
  74   0.0000       0.045614         1.2412 
  75   0.0000       0.055376         1.5069 
  76   0.0000       0.058155         1.5825 
  77   0.0000       0.061672         1.6782 
  78   0.0000       0.066196         1.8013 
  79   0.0000       0.081570         2.2196 
  80   0.0000       0.090980         2.4757 
*Only the first 10 virtual orbitals were printed.

                    ********************************
                    * MULLIKEN POPULATION ANALYSIS *
                    ********************************

-----------------------
MULLIKEN ATOMIC CHARGES
-----------------------
   0 C :   -0.227885
   1 C :   -0.217955
   2 C :   -0.229864
   3 C :    0.208586
   4 C :    0.022078
   5 O :   -0.372415
   6 C :    0.019258
   7 C :   -0.226979
   8 C :   -0.234505
   9 C :    0.149868
  10 C :   -0.016699
  11 N :   -0.397359
  12 C :   -0.036842
  13 C :   -0.299884
  14 C :   -0.099196
  15 C :    0.568403
  16 O :   -0.468134
  17 N :   -0.312898
  18 C :   -0.535232
  19 C :   -0.521150
  20 H :    0.229251
  21 H :    0.224088
  22 H :    0.237142
  23 H :    0.241359
  24 H :    0.234814
  25 H :    0.231665
  26 H :    0.226634
  27 H :    0.228814
  28 H :    0.227097
  29 H :    0.229140
  30 H :    0.227337
  31 H :    0.224924
  32 H :    0.230154
  33 H :    0.236385
Sum of atomic charges:   -0.0000000

--------------------------------
MULLIKEN REDUCED ORBITAL CHARGES
--------------------------------
  0 C s       :     3.180502  s :     3.180502
      pz      :     0.998988  p :     2.989183
      px      :     1.014877
      py      :     0.975318
      dz2     :     0.011160  d :     0.058201
      dxz     :     0.010800
      dyz     :     0.008407
      dx2y2   :     0.017691
      dxy     :     0.010143

  1 C s       :     3.197868  s :     3.197868
      pz      :     0.976477  p :     2.956919
      px      :     0.984948
      py      :     0.995495
      dz2     :     0.009263  d :     0.063168
      dxz     :     0.015534
      dyz     :     0.008185
      dx2y2   :     0.011433
      dxy     :     0.018753

  2 C s       :     3.190511  s :     3.190511
      pz      :     1.020224  p :     2.978072
      px      :     0.961973
      py      :     0.995876
      dz2     :     0.006870  d :     0.061280
      dxz     :     0.015061
      dyz     :     0.009801
      dx2y2   :     0.013096
      dxy     :     0.016452

  3 C s       :     3.125129  s :     3.125129
      pz      :     0.783794  p :     2.551679
      px      :     0.880842
      py      :     0.887043
      dz2     :     0.019566  d :     0.114605
      dxz     :     0.024071
      dyz     :     0.018434
      dx2y2   :     0.024884
      dxy     :     0.027651

  4 C s       :     3.025811  s :     3.025811
      pz      :     1.045032  p :     2.883685
      px      :     0.866535
      py      :     0.972119
      dz2     :     0.011507  d :     0.068426
      dxz     :     0.015985
      dyz     :     0.008666
      dx2y2   :     0.016433
      dxy     :     0.015834

  5 O s       :     3.808092  s :     3.808092
      pz      :     1.622147  p :     4.549330
      px      :     1.707596
      py      :     1.219586
      dz2     :     0.002910  d :     0.014993
      dxz     :     0.002359
      dyz     :     0.003549
      dx2y2   :     0.003375
      dxy     :     0.002800

  6 C s       :     3.084282  s :     3.084282
      pz      :     0.945575  p :     2.820118
      px      :     0.939144
      py      :     0.935399
      dz2     :     0.013093  d :     0.076342
      dxz     :     0.016955
      dyz     :     0.010380
      dx2y2   :     0.018224
      dxy     :     0.017691

  7 C s       :     3.193367  s :     3.193367
      pz      :     1.011181  p :     2.971616
      px      :     0.948925
      py      :     1.011510
      dz2     :     0.007684  d :     0.061996
      dxz     :     0.013382
      dyz     :     0.011186
      dx2y2   :     0.015378
      dxy     :     0.014367

  8 C s       :     3.203042  s :     3.203042
      pz      :     0.966824  p :     2.969458
      px      :     1.034773
      py      :     0.967861
      dz2     :     0.012292  d :     0.062005
      dxz     :     0.011234
      dyz     :     0.010010
      dx2y2   :     0.018762
      dxy     :     0.009706

  9 C s       :     3.057568  s :     3.057568
      pz      :     0.847327  p :     2.693264
      px      :     0.939579
      py      :     0.906358
      dz2     :     0.018923  d :     0.099300
      dxz     :     0.026109
      dyz     :     0.015252
      dx2y2   :     0.019682
      dxy     :     0.019334

 10 C s       :     3.072650  s :     3.072650
      pz      :     0.996985  p :     2.869827
      px      :     0.901708
      py      :     0.971135
      dz2     :     0.014038  d :     0.074221
      dxz     :     0.016207
      dyz     :     0.010998
      dx2y2   :     0.017236
      dxy     :     0.015741

 11 N s       :     3.628197  s :     3.628197
      pz      :     1.136642  p :     3.732284
      px      :     1.505659
      py      :     1.089983
      dz2     :     0.007316  d :     0.036878
      dxz     :     0.008779
      dyz     :     0.005747
      dx2y2   :     0.005818
      dxy     :     0.009219

 12 C s       :     3.139753  s :     3.139753
      pz      :     0.975185  p :     2.807674
      px      :     0.905552
      py      :     0.926938
      dz2     :     0.014607  d :     0.089415
      dxz     :     0.018801
      dyz     :     0.014630
      dx2y2   :     0.020888
      dxy     :     0.020490

 13 C s       :     3.236026  s :     3.236026
      pz      :     0.991345  p :     3.004274
      px      :     0.982206
      py      :     1.030723
      dz2     :     0.009412  d :     0.059585
      dxz     :     0.015014
      dyz     :     0.009409
      dx2y2   :     0.011131
      dxy     :     0.014619

 14 C s       :     3.154677  s :     3.154677
      pz      :     0.952216  p :     2.882142
      px      :     0.994095
      py      :     0.935832
      dz2     :     0.012734  d :     0.062377
      dxz     :     0.012927
      dyz     :     0.009542
      dx2y2   :     0.017565
      dxy     :     0.009608

 15 C s       :     2.897016  s :     2.897016
      pz      :     0.772193  p :     2.304354
      px      :     0.824554
      py      :     0.707608
      dz2     :     0.059053  d :     0.230226
      dxz     :     0.038940
      dyz     :     0.063491
      dx2y2   :     0.036262
      dxy     :     0.032482

 16 O s       :     3.825779  s :     3.825779
      pz      :     1.413327  p :     4.626487
      px      :     1.518409
      py      :     1.694750
      dz2     :     0.005367  d :     0.015868
      dxz     :     0.004078
      dyz     :     0.004388
      dx2y2   :     0.000915
      dxy     :     0.001120

 17 N s       :     3.463989  s :     3.463989
      pz      :     1.139138  p :     3.813603
      px      :     1.557212
      py      :     1.117252
      dz2     :     0.008226  d :     0.035306
      dxz     :     0.005266
      dyz     :     0.011298
      dx2y2   :     0.005128
      dxy     :     0.005388

 18 C s       :     3.321450  s :     3.321450
      pz      :     0.874294  p :     3.141837
      px      :     1.128874
      py      :     1.138669
      dz2     :     0.018279  d :     0.071944
      dxz     :     0.022014
      dyz     :     0.010072
      dx2y2   :     0.015003
      dxy     :     0.006575

 19 C s       :     3.315596  s :     3.315596
      pz      :     1.168417  p :     3.134490
      px      :     1.162251
      py      :     0.803822
      dz2     :     0.012312  d :     0.071064
      dxz     :     0.010207
      dyz     :     0.013124
      dx2y2   :     0.019027
      dxy     :     0.016394

 20 H s       :     0.770749  s :     0.770749

 21 H s       :     0.775912  s :     0.775912

 22 H s       :     0.762858  s :     0.762858

 23 H s       :     0.758641  s :     0.758641

 24 H s       :     0.765186  s :     0.765186

 25 H s       :     0.768335  s :     0.768335

 26 H s       :     0.773366  s :     0.773366

 27 H s       :     0.771186  s :     0.771186

 28 H s       :     0.772903  s :     0.772903

 29 H s       :     0.770860  s :     0.770860

 30 H s       :     0.772663  s :     0.772663

 31 H s       :     0.775076  s :     0.775076

 32 H s       :     0.769846  s :     0.769846

 33 H s       :     0.763615  s :     0.763615



                     *******************************
                     * LOEWDIN POPULATION ANALYSIS *
                     *******************************

----------------------
LOEWDIN ATOMIC CHARGES
----------------------
   0 C :   -0.118006
   1 C :   -0.102886
   2 C :   -0.104203
   3 C :   -0.005864
   4 C :   -0.038455
   5 O :    0.063511
   6 C :   -0.031459
   7 C :   -0.092754
   8 C :   -0.097538
   9 C :   -0.031455
  10 C :   -0.050122
  11 N :    0.002739
  12 C :   -0.097111
  13 C :   -0.128905
  14 C :   -0.060382
  15 C :   -0.128712
  16 O :   -0.205024
  17 N :    0.043727
  18 C :   -0.246060
  19 C :   -0.236609
  20 H :    0.110557
  21 H :    0.107785
  22 H :    0.120921
  23 H :    0.117328
  24 H :    0.113825
  25 H :    0.109892
  26 H :    0.122871
  27 H :    0.124189
  28 H :    0.123971
  29 H :    0.125002
  30 H :    0.124414
  31 H :    0.109670
  32 H :    0.127036
  33 H :    0.128108

-------------------------------
LOEWDIN REDUCED ORBITAL CHARGES
-------------------------------
  0 C s       :     2.831479  s :     2.831479
      pz      :     1.036977  p :     3.156636
      px      :     1.065191
      py      :     1.054469
      dz2     :     0.022750  d :     0.129891
      dxz     :     0.024193
      dyz     :     0.022353
      dx2y2   :     0.034331
      dxy     :     0.026264

  1 C s       :     2.827362  s :     2.827362
      pz      :     1.018281  p :     3.138278
      px      :     1.095331
      py      :     1.024667
      dz2     :     0.019957  d :     0.137246
      dxz     :     0.033747
      dyz     :     0.017083
      dx2y2   :     0.028491
      dxy     :     0.037968

  2 C s       :     2.826092  s :     2.826092
      pz      :     1.025008  p :     3.144603
      px      :     1.091292
      py      :     1.028303
      dz2     :     0.014584  d :     0.133508
      dxz     :     0.032746
      dyz     :     0.017216
      dx2y2   :     0.032232
      dxy     :     0.036730

  3 C s       :     2.788953  s :     2.788953
      pz      :     0.934333  p :     2.965404
      px      :     1.062752
      py      :     0.968319
      dz2     :     0.041086  d :     0.251506
      dxz     :     0.054582
      dyz     :     0.042749
      dx2y2   :     0.052760
      dxy     :     0.060329

  4 C s       :     2.782774  s :     2.782774
      pz      :     1.024102  p :     3.093994
      px      :     1.048612
      py      :     1.021280
      dz2     :     0.025267  d :     0.161686
      dxz     :     0.037621
      dyz     :     0.021609
      dx2y2   :     0.039762
      dxy     :     0.037427

  5 O s       :     3.362480  s :     3.362480
      pz      :     1.603338  p :     4.548986
      px      :     1.670956
      py      :     1.274691
      dz2     :     0.004520  d :     0.025023
      dxz     :     0.003051
      dyz     :     0.006088
      dx2y2   :     0.006826
      dxy     :     0.004538

  6 C s       :     2.778640  s :     2.778640
      pz      :     1.005117  p :     3.078710
      px      :     1.059937
      py      :     1.013656
      dz2     :     0.028224  d :     0.174109
      dxz     :     0.038845
      dyz     :     0.024971
      dx2y2   :     0.041733
      dxy     :     0.040336

  7 C s       :     2.827535  s :     2.827535
      pz      :     1.022458  p :     3.130798
      px      :     1.068429
      py      :     1.039912
      dz2     :     0.015861  d :     0.134420
      dxz     :     0.029483
      dyz     :     0.020163
      dx2y2   :     0.035517
      dxy     :     0.033396

  8 C s       :     2.827198  s :     2.827198
      pz      :     1.024777  p :     3.135396
      px      :     1.071133
      py      :     1.039487
      dz2     :     0.025659  d :     0.134943
      dxz     :     0.024365
      dyz     :     0.024622
      dx2y2   :     0.035897
      dxy     :     0.024400

  9 C s       :     2.781597  s :     2.781597
      pz      :     0.991358  p :     3.022421
      px      :     1.056646
      py      :     0.974416
      dz2     :     0.040496  d :     0.227437
      dxz     :     0.063180
      dyz     :     0.035473
      dx2y2   :     0.043607
      dxy     :     0.044681

 10 C s       :     2.782529  s :     2.782529
      pz      :     1.013967  p :     3.095780
      px      :     1.069630
      py      :     1.012183
      dz2     :     0.030007  d :     0.171813
      dxz     :     0.038874
      dyz     :     0.025631
      dx2y2   :     0.039994
      dxy     :     0.037306

 11 N s       :     3.128854  s :     3.128854
      pz      :     1.172920  p :     3.799430
      px      :     1.489997
      py      :     1.136513
      dz2     :     0.013839  d :     0.068977
      dxz     :     0.015096
      dyz     :     0.013980
      dx2y2   :     0.009953
      dxy     :     0.016109

 12 C s       :     2.836237  s :     2.836237
      pz      :     1.005644  p :     3.062847
      px      :     1.072739
      py      :     0.984464
      dz2     :     0.030559  d :     0.198027
      dxz     :     0.041312
      dyz     :     0.028017
      dx2y2   :     0.047481
      dxy     :     0.050658

[...]
 49:    995.31   0.004895   24.74  0.001535  (-0.017229 -0.002485  0.035097)
 50:   1000.76   0.000196    0.99  0.000061  ( 0.000768 -0.005558  0.005436)
 51:   1029.07   0.009096   45.97  0.002758  ( 0.044394 -0.027998 -0.001857)
 52:   1046.64   0.008657   43.75  0.002581  ( 0.027495 -0.042709 -0.001058)
 53:   1082.79   0.003911   19.76  0.001127  ( 0.010337 -0.031830 -0.002684)
 54:   1084.26   0.001310    6.62  0.000377  (-0.002416  0.016385 -0.010130)
 55:   1107.92   0.000578    2.92  0.000163  (-0.012129 -0.003383 -0.002047)
 56:   1134.41   0.000745    3.77  0.000205  (-0.005769  0.013104 -0.000265)
 57:   1148.13   0.006715   33.94  0.001825  (-0.009379 -0.037683 -0.017811)
 58:   1161.13   0.195283  986.88  0.052484  (-0.103510  0.172870  0.109022)
 59:   1172.49   0.002963   14.97  0.000789  (-0.006997  0.020884  0.017419)
 60:   1181.58   0.008819   44.57  0.002329  (-0.014316  0.042592  0.017614)
 61:   1188.17   0.003493   17.65  0.000917  ( 0.013907 -0.026426 -0.005070)
 62:   1220.79   0.004464   22.56  0.001141  (-0.008631  0.028412  0.016102)
 63:   1225.56   0.008976   45.36  0.002286  (-0.022227  0.037849  0.018948)
 64:   1257.66   0.029199  147.56  0.007245  (-0.050026  0.063933  0.025597)
 65:   1272.05   0.004506   22.77  0.001105  (-0.011742  0.029731  0.009138)
 66:   1285.36   0.002894   14.62  0.000703  ( 0.003623  0.020775 -0.016059)
 67:   1324.21   0.003013   15.22  0.000710  ( 0.017807 -0.015455 -0.012410)
 68:   1342.41   0.006362   32.15  0.001479  (-0.020916  0.025252  0.020098)
 69:   1355.89   0.001938    9.80  0.000446  ( 0.015054 -0.011015 -0.009909)
 70:   1412.15   0.022602  114.22  0.004995  ( 0.007117  0.057717  0.040160)
 71:   1422.12   0.045579  230.34  0.010002  (-0.046440  0.076903  0.043942)
 72:   1447.38   0.003579   18.09  0.000772  ( 0.003117  0.005039 -0.027141)
 73:   1452.85   0.002037   10.30  0.000438  (-0.002416 -0.017978 -0.010420)
 74:   1457.10   0.005831   29.47  0.001249  (-0.000931 -0.027798 -0.021802)
 75:   1470.66   0.008208   41.48  0.001742  ( 0.028431 -0.027813  0.012639)
 76:   1478.09   0.002968   15.00  0.000627  (-0.015957 -0.011601  0.015408)
 77:   1492.88   0.000237    1.20  0.000050  ( 0.002900  0.001404 -0.006257)
 78:   1501.96   0.006104   30.85  0.001268  (-0.035231 -0.004726 -0.002169)
 79:   1505.13   0.004276   21.61  0.000887  ( 0.007754  0.021627 -0.018939)
 80:   1531.66   0.001378    6.96  0.000281  ( 0.013178 -0.008361  0.006097)
 81:   1537.08   0.014561   73.59  0.002956  ( 0.013684 -0.052255 -0.006200)
 82:   1548.51   0.010381   52.46  0.002092  (-0.024311  0.033862  0.018822)
 83:   1601.17   0.007970   40.28  0.001553  ( 0.037803 -0.004533 -0.010185)
 84:   1633.15   0.010927   55.22  0.002088  (-0.008792 -0.033695 -0.029584)
 85:   1647.06   0.001243    6.28  0.000236  (-0.007846 -0.009006 -0.009636)
 86:   1661.70   0.004296   21.71  0.000807  ( 0.027493  0.007141 -0.000101)
 87:   1743.41   0.176104  889.96  0.031522  ( 0.034187  0.006513 -0.174100)
 88:   3024.20   0.007235   36.56  0.000747  (-0.002401  0.023852 -0.013110)
 89:   3029.04   0.024820  125.43  0.002557  (-0.000964 -0.028989 -0.041421)
 90:   3076.11   0.021880  110.57  0.002220  (-0.046805 -0.003619  0.003990)
 91:   3080.25   0.001381    6.98  0.000140  (-0.011735  0.001236 -0.000826)
 92:   3150.74   0.009494   47.98  0.000940  (-0.004148  0.021553  0.021414)
 93:   3169.86   0.000320    1.61  0.000031  ( 0.005180  0.001930  0.000947)
 94:   3173.06   0.001699    8.58  0.000167  ( 0.000269 -0.004128  0.012245)
 95:   3176.35   0.001151    5.82  0.000113  (-0.008761  0.003326  0.005028)
 96:   3176.96   0.001661    8.39  0.000163  ( 0.012108 -0.001911 -0.003591)
 97:   3186.61   0.005009   25.31  0.000491  (-0.019051  0.006396  0.009311)
 98:   3189.45   0.009665   48.85  0.000946  (-0.008252  0.020968  0.020927)
 99:   3191.28   0.001833    9.26  0.000179  (-0.003127  0.012985  0.000920)
100:   3201.05   0.011044   55.81  0.001077  ( 0.023894  0.018336  0.013020)
101:   3201.29   0.000283    1.43  0.000028  (-0.001369 -0.003435 -0.003730)

* The epsilon (eps) is given for a Dirac delta lineshape.
** The dipole moment derivative (T) already includes vibrational overlap.

The first frequency considered to be a vibration is 6
The total number of vibrations considered is 96


--------------------------
THERMOCHEMISTRY AT 298.15K
--------------------------

Temperature         ...   298.15 K
Pressure            ...     1.00 atm
Total Mass          ...   266.30 AMU
Quasi RRHO          ...     True
Cut-Off Frequency   ...     1.00 cm^-1

Throughout the following assumptions are being made:
  (1) The electronic state is orbitally nondegenerate
  (2) There are no thermally accessible electronically excited states
  (3) Hindered rotations indicated by low frequency modes are not
      treated as such but are treated as vibrations and this may
      cause some error
  (4) All equations used are the standard statistical mechanics
      equations for an ideal gas
  (5) All vibrations are strictly harmonic

freq.      23.10  E(vib)   ...       0.56 
freq.      37.84  E(vib)   ...       0.54 
freq.      50.34  E(vib)   ...       0.52 
freq.      58.30  E(vib)   ...       0.51 
freq.      96.93  E(vib)   ...       0.46 
freq.     103.38  E(vib)   ...       0.46 
freq.     113.17  E(vib)   ...       0.45 
freq.     131.98  E(vib)   ...       0.42 
freq.     204.33  E(vib)   ...       0.35 
freq.     220.39  E(vib)   ...       0.33 
freq.     227.73  E(vib)   ...       0.33 
freq.     232.63  E(vib)   ...       0.32 
freq.     246.40  E(vib)   ...       0.31 
freq.     297.05  E(vib)   ...       0.27 
freq.     366.99  E(vib)   ...       0.22 
freq.     376.63  E(vib)   ...       0.21 
freq.     409.66  E(vib)   ...       0.19 
freq.     421.02  E(vib)   ...       0.18 
freq.     463.54  E(vib)   ...       0.16 
freq.     488.81  E(vib)   ...       0.15 
freq.     509.46  E(vib)   ...       0.14 
freq.     519.35  E(vib)   ...       0.13 
freq.     524.65  E(vib)   ...       0.13 
freq.     561.25  E(vib)   ...       0.11 
freq.     582.09  E(vib)   ...       0.11 
freq.     607.40  E(vib)   ...       0.10 
freq.     623.15  E(vib)   ...       0.09 
freq.     659.12  E(vib)   ...       0.08 
freq.     701.60  E(vib)   ...       0.07 
freq.     729.80  E(vib)   ...       0.06 
freq.     735.99  E(vib)   ...       0.06 
freq.     739.22  E(vib)   ...       0.06 
freq.     773.21  E(vib)   ...       0.05 
freq.     800.75  E(vib)   ...       0.05 
freq.     823.74  E(vib)   ...       0.05 
freq.     833.28  E(vib)   ...       0.04 
freq.     853.72  E(vib)   ...       0.04 
freq.     868.06  E(vib)   ...       0.04 
freq.     870.66  E(vib)   ...       0.04 
freq.     921.94  E(vib)   ...       0.03 
freq.     965.33  E(vib)   ...       0.03 
freq.     979.44  E(vib)   ...       0.03 
freq.     987.90  E(vib)   ...       0.02 
freq.     995.31  E(vib)   ...       0.02 
freq.    1000.76  E(vib)   ...       0.02 
freq.    1029.07  E(vib)   ...       0.02 
freq.    1046.64  E(vib)   ...       0.02 
freq.    1082.79  E(vib)   ...       0.02 
freq.    1084.26  E(vib)   ...       0.02 
freq.    1107.92  E(vib)   ...       0.02 
freq.    1134.41  E(vib)   ...       0.01 
freq.    1148.13  E(vib)   ...       0.01 
freq.    1161.13  E(vib)   ...       0.01 
freq.    1172.49  E(vib)   ...       0.01 
freq.    1181.58  E(vib)   ...       0.01 
freq.    1188.17  E(vib)   ...       0.01 
freq.    1220.79  E(vib)   ...       0.01 
freq.    1225.56  E(vib)   ...       0.01 
freq.    1257.66  E(vib)   ...       0.01 
freq.    1272.05  E(vib)   ...       0.01 
freq.    1285.36  E(vib)   ...       0.01 
freq.    1324.21  E(vib)   ...       0.01 
freq.    1342.41  E(vib)   ...       0.01 
freq.    1355.89  E(vib)   ...       0.01 
freq.    1412.15  E(vib)   ...       0.00 
freq.    1422.12  E(vib)   ...       0.00 
freq.    1447.38  E(vib)   ...       0.00 
freq.    1452.85  E(vib)   ...       0.00 
freq.    1457.10  E(vib)   ...       0.00 
freq.    1470.66  E(vib)   ...       0.00 
freq.    1478.09  E(vib)   ...       0.00 
freq.    1492.88  E(vib)   ...       0.00 
freq.    1501.96  E(vib)   ...       0.00 
freq.    1505.13  E(vib)   ...       0.00 
freq.    1531.66  E(vib)   ...       0.00 
freq.    1537.08  E(vib)   ...       0.00 
freq.    1548.51  E(vib)   ...       0.00 
freq.    1601.17  E(vib)   ...       0.00 
freq.    1633.15  E(vib)   ...       0.00 
freq.    1647.06  E(vib)   ...       0.00 
freq.    1661.70  E(vib)   ...       0.00 
freq.    1743.41  E(vib)   ...       0.00 
freq.    3024.20  E(vib)   ...       0.00 
freq.    3029.04  E(vib)   ...       0.00 
freq.    3076.11  E(vib)   ...       0.00 
freq.    3080.25  E(vib)   ...       0.00 
freq.    3150.74  E(vib)   ...       0.00 
freq.    3169.86  E(vib)   ...       0.00 
freq.    3173.06  E(vib)   ...       0.00 
freq.    3176.35  E(vib)   ...       0.00 
freq.    3176.96  E(vib)   ...       0.00 
freq.    3186.61  E(vib)   ...       0.00 
freq.    3189.45  E(vib)   ...       0.00 
freq.    3191.28  E(vib)   ...       0.00 
freq.    3201.05  E(vib)   ...       0.00 
freq.    3201.29  E(vib)   ...       0.00 

------------
INNER ENERGY
------------

The inner energy is: U= E(el) + E(ZPE) + E(vib) + E(rot) + E(trans)
    E(el)   - is the total energy from the electronic structure calculation
              = E(kin-el) + E(nuc-el) + E(el-el) + E(nuc-nuc)
    E(ZPE)  - the the zero temperature vibrational energy from the frequency calculation
    E(vib)  - the the finite temperature correction to E(ZPE) due to population
              of excited vibrational states
    E(rot)  - is the rotational thermal energy
    E(trans)- is the translational thermal energy

Summary of contributions to the inner energy U:
Electronic energy                ...   -878.32940940 Eh
Zero point energy                ...      0.26866022 Eh     168.59 kcal/mol
Thermal vibrational correction   ...      0.01404149 Eh       8.81 kcal/mol
Thermal rotational correction    ...      0.00141627 Eh       0.89 kcal/mol
Thermal translational correction ...      0.00141627 Eh       0.89 kcal/mol
-----------------------------------------------------------------------
Total thermal energy                   -878.04387515 Eh


Summary of corrections to the electronic energy:
(perhaps to be used in another calculation)
Total thermal correction                  0.01687403 Eh      10.59 kcal/mol
Non-thermal (ZPE) correction              0.26866022 Eh     168.59 kcal/mol
-----------------------------------------------------------------------
Total correction                          0.28553425 Eh     179.18 kcal/mol


--------
ENTHALPY
--------

The enthalpy is H = U + kB*T
                kB is Boltzmann's constant
Total thermal energy              ...   -878.04387515 Eh 
Thermal Enthalpy correction       ...      0.00094421 Eh       0.59 kcal/mol
-----------------------------------------------------------------------
Total Enthalpy                    ...   -878.04293095 Eh


Note: Only C1 symmetry has been detected, increase convergence thresholds 
      if your molecule has a higher symmetry. Symmetry factor of 1.0 is   
      used for the rotational entropy correction. 
 

Note: Rotational entropy computed according to Herzberg 
Infrared and Raman Spectra, Chapter V,1, Van Nostrand Reinhold, 1945 
Point Group:  C1, Symmetry Number:   1  
Rotational constants in cm-1:     0.016107     0.011074     0.007156 

Vibrational entropy computed according to the QRRHO of S. Grimme
Chem.Eur.J. 2012 18 9955 using a reference frequency of 100.0 cm-1


-------
ENTROPY
-------

The entropy contributions are T*S = T*(S(el)+S(vib)+S(rot)+S(trans))
     S(el)   - electronic entropy
     S(vib)  - vibrational entropy
     S(rot)  - rotational entropy
     S(trans)- translational entropy
The entropies will be listed as multiplied by the temperature to get
units of energy

Electronic entropy                ...      0.00000000 Eh      0.00 kcal/mol
Vibrational entropy               ...      0.02473484 Eh     15.52 kcal/mol
Rotational entropy                ...      0.01591774 Eh      9.99 kcal/mol
Translational entropy             ...      0.02025841 Eh     12.71 kcal/mol
-----------------------------------------------------------------------
Final entropy term                ...      0.06091100 Eh     38.22 kcal/mol

In case the symmetry of your molecule has not been determined correctly
or in case you have a reason to use a different symmetry number we print 
out the resulting rotational entropy values for sn=1,12:

 non-linear molecules -----------------------------------
|  sn= 1 | S(rot)=       0.01591774 Eh      9.99 kcal/mol|
|  sn= 2 | S(rot)=       0.01526328 Eh      9.58 kcal/mol|
|  sn= 3 | S(rot)=       0.01488045 Eh      9.34 kcal/mol|
|  sn= 4 | S(rot)=       0.01460883 Eh      9.17 kcal/mol|
|  sn= 5 | S(rot)=       0.01439814 Eh      9.03 kcal/mol|
|  sn= 6 | S(rot)=       0.01422600 Eh      8.93 kcal/mol|
|  sn= 7 | S(rot)=       0.01408045 Eh      8.84 kcal/mol|
|  sn= 8 | S(rot)=       0.01395437 Eh      8.76 kcal/mol|
|  sn= 9 | S(rot)=       0.01384316 Eh      8.69 kcal/mol|
|  sn=10 | S(rot)=       0.01374368 Eh      8.62 kcal/mol|
|  sn=11 | S(rot)=       0.01365369 Eh      8.57 kcal/mol|
|  sn=12 | S(rot)=       0.01357154 Eh      8.52 kcal/mol|
 linear molecules ---------------------------------------
|  Dinfh | S(rot)=       0.00998985 Eh      6.27 kcal/mol|
|  Cinfv | S(rot)=       0.01064430 Eh      6.68 kcal/mol|
 --------------------------------------------------------


-------------------
GIBBS FREE ENERGY
-------------------

The Gibbs free energy is G = H - T*S

Total enthalpy                    ...   -878.04293095 Eh 
Total entropy correction          ...     -0.06091100 Eh    -38.22 kcal/mol
-----------------------------------------------------------------------
Final Gibbs free energy         ...   -878.10384194 Eh

For completeness - the Gibbs free energy minus the electronic energy
G-E(el)                           ...      0.22556746 Eh    141.55 kcal/mol


Maximum memory used throughout the entire PROP-calculation: 232.1 MB

--------------------------------
SUGGESTED CITATIONS FOR THIS RUN
--------------------------------

Below you find a list of papers that are relevant to this ORCA run
We neither can nor want to force you to cite these papers, but we appreciate if you do
You receive ORCA, which is the product of decades of hard work by many enthusiastic individuals, for free
The only thing we kindly ask in return is that you cite our papers,
We deeply appreciate it, if you show your appreciation for ORCA by not just citing the generic ORCA reference.

Please note that relegating all ORCA citations to the supporting information does *not* help us.
SI sections are not indexed - citations you put there will not count into any citation statistics
But we need these citations in order to attract the funding resources that allow us to do what we are doing

Therefore, if you are a happy ORCA user, please consider citing a few of the papers listed below in the main body of your paper

In addition to the list printed below, the program has created the file 3.bibtex that contains the list in bibtex format
You can import this file easily into all common literature databanks and citation aid programs


List of essential papers. We consider these as the minimum necessary citations

  1. Neese,F.
     Software update: the ORCA program system, version 5.0
     WIRES Comput. Molec. Sci., 2022 12(1)e1606
     doi.org/10.1002/wcms.1606

List of papers to cite with high priority. The work reported in these papers was absolutely
necessary for this run to complete.
Our perspective: the developers of density functionals and basis sets usually get cited in chemistry papers
Good! But without the algorithms to do something with them, the functionals or basis sets would not do anything.
Hence, in our opinion, the algorithm design and method developments papers are equally worthy of getting cited

  1. Neese,F.
     An improvement of the resolution of the identity approximation for the formation of the Coulomb matrix
     J. Comp. Chem., 2003 24(14)1740-1747
     doi.org/10.1002/jcc.10318
  2. Neese,F.; Wennmohs,F.; Hansen,A.; Becker,U.
     Efficient, approximate and parallel Hartree-Fock and hybrid DFT calculations. A 'chain-of-spheres' algorithm for the Hartree-Fock exchange
     Chem. Phys., 2009 356(1-3)98-109
     doi.org/10.1016/j.chemphys.2008.10.036
  3. Bykov,D.; Petrenko,T.; Izsak,R.; Kossmann,S.; Becker,U.; Valeev,E.; Neese,F.
     Efficient implementation of the analytic second derivatives of Hartree-Fock and hybrid DFT energies: a detailed analysis of different approximations
     Molec. Phys., 2015 113 1961-1977
     doi.org/10.1080/00268976.2015.1025114
  4. Garcia-Rates,M.; Neese,F.
     Efficient implementation of the analytical second derivatives of hartree-fock and hybrid DFT energies within the framework of the conductor-like polarizable continuum model
     J. Comput. Chem., 2019 40 1816-1828
     doi.org/10.1002/jcc.25833
  5. Garcia-Rates,M.; Neese,F.
     Effect of the Solute Cavity on the Solvation Energy and its Derivatives within the Framework of the Gaussian Charge Scheme
     J. Comput. Chem., 2020 41 922-939
     doi.org/10.1002/jcc.26139
  6. Helmich-Paris,B.; de Souza,B.; Neese,F.; Izsák,R.
     An improved chain of spheres for exchange algorithm
     J. Chem. Phys., 2021 155 104109
     doi.org/doi: 10.1063/5.0058766.
  7. Neese,F.
     The SHARK Integral Generation and Digestion System
     J. Comp. Chem., 2022  1-16
     doi.org/10.1002/jcc.26942

List of suggested additional citations. These are papers that are important in the 'surrounding' of 
of this run, or papers that preceded the highly important papers. If you like your results we are grateful for a citation.

  1. Izsak,R.; Neese,F.
     An overlap fitted chain of spheres exchange method
     J. Chem. Phys., 2011 135 144105
     doi.org/10.1063/1.3646921
  2. Izsak,R.; Hansen,A.; Neese,F.
     The resolution of identity and chain of spheres approximations for the LPNO-CCSD singles Fock term
     Molec. Phys., 2012 110 2413-2417
     doi.org/10.1080/00268976.2012.687466
  3. Neese,F.
     The ORCA program system
     WIRES Comput. Molec. Sci., 2012 2(1)73-78
     doi.org/10.1002/wcms.81
  4. Izsak,R.; Neese,F.; Klopper,W.
     Robust fitting techniques in the chain of spheres approximation to the Fock exchange: The role of the complementary space
     J. Chem. Phys., 2013 139 
     doi.org/10.1063/1.4819264
  5. Neese,F.
     Software update: the ORCA program system, version 4.0
     WIRES Comput. Molec. Sci., 2018 8(1)1-6
     doi.org/10.1002/wcms.1327
  6. Neese,F.; Wennmohs,F.; Becker,U.; Riplinger,C.
     The ORCA quantum chemistry program package
     J. Chem. Phys., 2020 152 Art. No. L224108
     doi.org/10.1063/5.0004608

List of optional additional citations

  1. Neese,F.
     Approximate second-order SCF convergence for spin unrestricted wavefunctions
     Chem. Phys. Lett., 2000 325(1-3)93-98
     doi.org/10.1016/s0009-2614(00)00662-x

Timings for individual modules:

Sum of individual times          ...    13933.263 sec (= 232.221 min)
Startup calculation              ...      211.269 sec (=   3.521 min)   1.5 %
SCF iterations                   ...     6078.751 sec (= 101.313 min)  43.6 %
Property integrals               ...     1072.213 sec (=  17.870 min)   7.7 %
SCF Response                     ...     1464.833 sec (=  24.414 min)  10.5 %
Property calculations            ...     1367.506 sec (=  22.792 min)   9.8 %
SCF Gradient evaluation          ...     3736.891 sec (=  62.282 min)  26.8 %
Geometry relaxation              ...        1.799 sec (=   0.030 min)   0.0 %
                             ****ORCA TERMINATED NORMALLY****
TOTAL RUN TIME: 0 days 3 hours 52 minutes 28 seconds 611 msec
