
                                 *****************
                                 * O   R   C   A *
                                 *****************

                                            #,                                       
                                            ###                                      
                                            ####                                     
                                            #####                                    
                                            ######                                   
                                           ########,                                 
                                     ,,################,,,,,                         
                               ,,#################################,,                 
                          ,,##########################################,,             
                       ,#########################################, ''#####,          
                    ,#############################################,,   '####,        
                  ,##################################################,,,,####,       
                ,###########''''           ''''###############################       
              ,#####''   ,,,,##########,,,,          '''####'''          '####       
            ,##' ,,,,###########################,,,                        '##       
           ' ,,###''''                  '''############,,,                           
         ,,##''                                '''############,,,,        ,,,,,,###''
      ,#''                                            '''#######################'''  
     '                                                          ''''####''''         
             ,#######,   #######,   ,#######,      ##                                
            ,#'     '#,  ##    ##  ,#'     '#,    #''#        ,####,   ,####,        
            ##       ##  ##   ,#'  ##            #'  '#       #'       #'  '#        
            ##       ##  #######   ##           ,######,      #####,   #    #        
            '#,     ,#'  ##    ##  '#,     ,#' ,#      #,     #,   #   #,  ,#        
             '#######'   ##     ##  '#######'  #'      '#     '####' # '####'        



                #########################################################
                #                        -***-                          #
                #          Department of theory and spectroscopy        #
                #                                                       #
                #                      Frank Neese                      #
                #                                                       #
                #     Directorship, Architecture, Infrastructure        #
                #                    SHARK, DRIVERS                     #
                #        Core code/Algorithms in most modules           #
                #                                                       #
                #        Max Planck Institute fuer Kohlenforschung      #
                #                Kaiser Wilhelm Platz 1                 #
                #                 D-45470 Muelheim/Ruhr                 #
                #                      Germany                          #
                #                                                       #
                #                  All rights reserved                  #
                #                        -***-                          #
                #########################################################


                         Program Version 6.0.1  -  RELEASE   -


 With contributions from (in alphabetic order):
[Max-Planck-Institut fuer Kohlenforschung]                               
  Daniel Aravena         : Magnetic Suceptibility                        
  Michael Atanasov       : Ab Initio Ligand Field Theory (pilot matlab implementation)
  Alexander A. Auer      : GIAO ZORA, VPT2 properties, NMR spectrum      
  Ute Becker             : All parallelization in ORCA, NUMFREQ, NUMCALC 
  Giovanni Bistoni       : ED, misc. LED, open-shell LED, HFLD           
  Martin Brehm           : Molecular dynamics                            
  Dmytro Bykov           : pre 5.0 version of the SCF Hessian            
  Marcos Casanova-Páez   : Triplet and SCS-CIS(D). UHF-(DLPNO)-IP/EA/STEOM-CCSD. UHF-CVS-IP/STEOM-CCSD   
  Vijay G. Chilkuri      : MRCI spin determinant printing, contributions to CSF-ICE 
  Pauline Colinet        : FMM embedding                                 
  Dipayan Datta          : RHF DLPNO-CCSD density                        
  Achintya Kumar Dutta   : EOM-CC, STEOM-CC                              
  Nicolas Foglia         : Exact transition moments, OPA infrastructure, MCD improvements    
  Dmitry Ganyushin       : Spin-Orbit,Spin-Spin,Magnetic field MRCI      
  Miquel Garcia-Rates    : C-PCM and meta-GGA Hessian, CCSD/C-PCM, Gaussian charge scheme 
  Tiago L. C. Gouveia    : GS-ROHF, GS-ROCIS                             
  Yang Guo               : DLPNO-NEVPT2, F12-NEVPT2, CIM, IAO-localization        
  Andreas Hansen         : Spin unrestricted coupled pair/coupled cluster methods 
  Ingolf Harden          : AUTO-CI MPn and infrastructure                
  Benjamin Helmich-Paris : MC-RPA, TRAH-(SCF,CASSCF), AVAS, COSX integrals, SCF dyn. polar. 
  Lee Huntington         : MR-EOM, pCC                                   
  Robert Izsak           : Overlap fitted RIJCOSX, COSX-SCS-MP3, EOM     
  Riya Kayal             : Wick's Theorem for AUTO-CI, AUTO-CI UHF-CCSDT 
  Emily Kempfer          : AUTO-CI, RHF CISDT and CCSDT                  
  Christian Kollmar      : KDIIS, OOCD, Brueckner-CCSD(T), CCSD density, CASPT2, CASPT2-K, improved NEVPT2 
  Axel Koslowski         : Symmetry handling                             
  Simone Kossmann        : meta-GGA functionals, TD-DFT gradient, OOMP2, (MP2 Hessian; deprecated post 5.0) 
  Lucas Lang             : DCDCAS                                        
  Marvin Lechner         : AUTO-CI (C++ implementation), FIC-MRCC        
  Spencer Leger          : CASSCF response                               
  Dagmar Lenk            : GEPOL surface, SMD, ORCA-2-JSON               
  Dimitrios Liakos       : Extrapolation schemes; Compound Job, initial MDCI parallelization 
  Dimitrios Manganas     : Further ROCIS development; embedding schemes. LFT, Crystal Embedding 
  Dimitrios Pantazis     : SARC Basis sets                               
  Anastasios Papadopoulos: AUTO-CI, single reference methods and gradients 
  Taras Petrenko         : pre 6.0 DFT Hessian and TD-DFT gradient, (ASA, deprecated), ECA, 1-Electron XAS/XES, NRVS 
  Peter Pinski           : DLPNO-MP2, DLPNO-MP2 Gradient                 
  Christoph Reimann      : Effective Core Potentials                     
  Marius Retegan         : Local ZFS, SOC                                
  Christoph Riplinger    : Optimizer, TS searches, QM/MM, DLPNO-CCSD(T), (RO)-DLPNO pert. Triples 
  Michael Roemelt        : Original ROCIS implementation                 
  Masaaki Saitow         : Open-shell DLPNO-CCSD energy and density      
  Barbara Sandhoefer     : DKH picture change effects                    
  Kantharuban Sivalingam : CASSCF convergence/infrastructure, NEVPT2 and variants, FIC-MRCI 
  Bernardo de Souza      : ESD, SOC TD-DFT                               
  Georgi L. Stoychev     : AutoAux, RI-MP2 NMR, DLPNO-MP2 response, X2C  
  Van Anh Tran           : RI-MP2 g-tensors                              
  Willem Van den Heuvel  : Paramagnetic NMR                              
  Zikuan Wang            : NOTCH, Electric field optimization            
  Frank Wennmohs         : Technical directorship and infrastructure     
  Hang Xu                : AUTO-CI-Response properties                   
                                                                         
[FACCTs GmbH]                                                            
  Markus Bursch, Miquel Garcia-Rates, Christoph Riplinger, Bernardo de Souza, Georgi L. Stoychev 
                                                                 
  APM, Basis sets (HGBS, AHGBS, def-TZVP (Ac-Lr), def2-XVPD (La-Lu)), CI-OPT, improved COSX, DLPNO-Multilevel,           
  DOCKER, DRACO, updates on ESD, GOAT, IRC, LR-CPCM, MBIS, meta-GGA TD-DFT gradient, ML-optimized integration grids, 
  MM, NACMEs, nearIR, NEB, NEB-TS, NL-DFT gradient (VV10), 2- and 3-layer-ONIOM, interface openCOSMO-RS, QMMM,   
  Crystal-QMMM, SF, symmetry and pop. for TD-DFT, r2SCAN hybrids, SOLVATOR                                   
                                                                         
[Other institutions]                                                     
  V. Asgeirsson          : NEB                                           
  Christoph Bannwarth    : sTDA-DFT, sTD-DFT, PBEh-3c, B97-3c, D3        
  Sebastian Ehlert       : rSCAN, r2SCAN, r2SCAN-3c, D4, dhf basis sets  
  Marvin Friede          : D4 for Fr, Ra, Ac-Lr                          
  Lars Goerigk           : TD-DFT with DH, B97 family of functionals     
  Stefan Grimme          : VdW corrections, initial TS optimization, DFT functionals, gCP, sTDA/sTD-DF 
  Waldemar Hujo          : DFT-NL                                        
  H. Jonsson             : NEB                                           
  Holger Kruse           : gCP                                           
  Marcel Mueller         : wB97X-3c, vDZP basis set                      
  Hagen Neugebauer       : wr2SCAN                                       
  Tobias Risthaus        : range-separated hybrid DFT                    
  Lukas Wittmann         : regularized MP2, r2SCAN double-hybrids, wr2SCAN        
                                                                         
We gratefully acknowledge several colleagues who have allowed us to      
interface, adapt or use parts of their codes:                            
  Ed Valeev, F. Pavosevic, A. Kumar             : LibInt (2-el integral package), F12 methods 
  Garnet Chan, S. Sharma, J. Yang, R. Olivares  : DMRG                   
  Ulf Ekstrom                                   : XCFun DFT Library      
  Mihaly Kallay                                 : mrcc  (arbitrary order and MRCC methods)
  Frank Weinhold                                : gennbo (NPA and NBO analysis)           
  Simon Mueller                                 : openCOSMO-RS                            
  Christopher J. Cramer and Donald G. Truhlar   : smd solvation model                     
  S Lehtola, MJT Oliveira, MAL Marques          : LibXC Library                           
  Liviu Ungur et al                             : ANISO software                          


 Your calculation uses the libint2 library for the computation of 2-el integrals
 For citations please refer to: http://libint.valeyev.net

 Your ORCA version has been built with support for libXC version: 6.2.2
 For citations please refer to: https://libxc.gitlab.io

 This ORCA versions uses:
   CBLAS   interface :  Fast vector & matrix operations
   LAPACKE interface :  Fast linear algebra routines
   SCALAPACK package :  Parallel linear algebra routines
   Shared memory     :  Shared parallel matrices
   BLAS/LAPACK       :  OpenBLAS 0.3.27  USE64BITINT DYNAMIC_ARCH NO_AFFINITY Cooperlake SINGLE_THREADED
        Core in use  :  Cooperlake
   Copyright (c) 2011-2014, The OpenBLAS Project


Warning: RI is on but no J-basis has been assigned. Assigning Def2/J (nothing to worry about!)
================================================================================

----- Orbital basis set information -----
Your calculation utilizes the basis: 6-311G*
   H, Li - Ne  : R. Krishnan, J. S. Binkley, R. Seeger and J. A. Pople, J. Chem. Phys. 72, 650 (1980).
   Na - Ar     : A. D. McLean and G. S. Chandler J. Chem. Phys. 72, 5639, (1980).
   K  - Ca     : J.-P. Blaudeau, M. P. McGrath, L. A. Curtiss and L. Radom, J. Chem. Phys. 107, 5016 (1997).
   Ga - Kr     : L. A. Curtiss, M. P. McGrath, J.-P. Blandeau, N. E. Davis, R. C. Binning and L. Radom, J. Chem. Phys. 103, 6104 (1995).
   Pol./Diff.
   H, Li - Cl  : T. Clark, J. Chandrasekhar and P. v. R. Schleyer, J. Comp. Chem. 4, 294 (1983).
   H - Ne      : M. J. Frisch, J. A. Pople and J. S. Binkley, J. Chem. Phys. 80, 3265 (1984).

----- AuxJ basis set information -----
Your calculation utilizes the auxiliary basis: def2/J
   F. Weigend, Phys. Chem. Chem. Phys. 8, 1057 (2006).

================================================================================
                                        WARNINGS
                       Please study these warnings very carefully!
================================================================================

INFO   : Checking CIS options ...

WARNING: (CIS/TDDFT): Analytic excited state gradients requested
  ===> : turning on equilibrium dielectric conditions.

WARNING: Analytical Frequencies for this method not available!
  ===> : Switching to Numerical Frequencies!

WARNING: Geometry Optimization
  ===> : Switching off AutoStart
         For restart on a previous wavefunction, please use MOREAD

WARNING: CIS/ROCIS methods need fully converged wavefunctions
  ===> : Setting SCFConvForced true
         You can overwrite this default with %scf ConvForced false 


================================================================================
                                       INPUT FILE
================================================================================
NAME = 1globalminimum.inp
|  1> ! B3LYP/G OPT FREQ 6-311G* CPCM(Water)
|  2> 
|  3> %tddft
|  4>     NRoots 3
|  5>     IRoot 1
|  6> end 
|  7> 
|  8> * xyz 0 1 
|  9> C  -3.35376279992966619403 -0.62938332631936966255 -0.98291902019988841577
| 10> C  -2.74163567778435490752 -1.65396753206475333187 -1.70083327012608154227
| 11> C  -1.37556057110036400459 -1.77361463115568529503 -1.68985554185761888135
| 12> C  -2.59377832163920052366 0.28947157483868263261 -0.29126838017414902193
| 13> C  -1.18518256682654898881 0.23058864571862797144 -0.30793397495779634143
| 14> O  -3.28313576694100017761 1.27891215907834410181 0.39253390567276319478
| 15> C  -0.57974430809541521725 -0.84984392244581397069 -0.99518280783768264808
| 16> C  0.83765897162851232771 -0.99941651125977515324 -0.96694484835660599042
| 17> C  1.62532363545541747030 -0.13324257704872946584 -0.29134679365287491359
| 18> C  -0.33981572169269685935 1.20155618808551678534 0.33794909142459522711
| 19> C  1.06099378317829384777 0.99155102761471525241 0.37121776928827338038
| 20> N  -0.89160482556474629501 2.29709441070834641252 0.88020448050241895110
| 21> C  -0.12737892844849171836 3.16172913775715436202 1.50218360694920360920
| 22> C  1.25508534142907479669 3.02054943705290490641 1.63709383834394195389
| 23> C  1.85145982118581375886 1.93049095025746342280 1.05206844754513428875
| 24> C  -3.04214894254066781087 1.40620577357731368906 1.72629620845151654507
| 25> O  -2.49568855261252986466 0.53024716228100599036 2.38580922339505407948
| 26> N  -3.57862348866780832779 2.51502633883670112525 2.24077142925116401528
| 27> C  -3.46729674865841852593 2.78653267554346806278 3.65577445111836807357
| 28> C  -4.19915828413403158237 3.55718519172478275792 1.45473877439351650942
| 29> H  -4.19595577246243678360 3.28081188523075040209 0.40597626620533888708
| 30> H  -3.64686879558558540992 4.48869862025915988823 1.58512593768511966807
| 31> H  -5.22622419340026755918 3.70114038984416060529 1.79233111571136438656
| 32> H  -2.97556703009237244473 1.94347967362822404702 4.13612545209459003814
| 33> H  -4.46095812968806182397 2.92338571226544274850 4.08294430685029841044
| 34> H  -2.87785541639052455665 3.69005593182455582379 3.81659500312575428183
| 35> H  -0.89127192018300471776 -2.58341459768552850207 -2.21303302893003905893
| 36> H  -4.42821531638336018943 -0.54075895530933260069 -0.94729975834403012946
| 37> H  -3.35144855982815181861 -2.36092499855638804362 -2.24025591010660996005
| 38> H  1.26473192443005877372 -1.84010580558807324003 -1.49198213931114054276
| 39> H  2.69645568134601498755 -0.26306532522173181610 -0.25034568316961969270
| 40> H  -0.64266899218879569577 4.01984478260729538590 1.91199369323563916900
| 41> H  1.82759222514087293909 3.75875270627759405784 2.17456109445499290445
| 42> H  2.92040825966053807505 1.78225782008492328323 1.10128704506063868074
| 43> *
| 44> 
| 45>                          ****END OF INPUT****
================================================================================

                       *****************************
                       * Geometry Optimization Run *
                       *****************************

Geometry optimization settings:
Update method            Update   .... BFGS
Choice of coordinates    CoordSys .... (2022) Redundant Internals
Initial Hessian          InHess   .... Almloef's Model
Max. no of cycles        MaxIter  .... 102

Convergence Tolerances:
Energy Change            TolE     ....  5.0000e-06 Eh
Max. Gradient            TolMAXG  ....  3.0000e-04 Eh/bohr
RMS Gradient             TolRMSG  ....  1.0000e-04 Eh/bohr
Max. Displacement        TolMAXD  ....  4.0000e-03 bohr
RMS Displacement         TolRMSD  ....  2.0000e-03 bohr
Strict Convergence                .... False

------------------------------------------------------------------------------
                        ORCA OPTIMIZATION COORDINATE SETUP
------------------------------------------------------------------------------

The optimization will be done in redundant internal coordinates (2022)
Making redundant internal coordinates   ...  (2022 redundants) done
Evaluating the initial hessian          ...  (Almloef) done
Evaluating the coordinates              ...  done
Calculating the B-matrix                .... done
Calculating the G-matrix                .... done
Diagonalizing the G-matrix              .... done
Small eigenvalue found = 5.822e-03
Small eigenvalue found = 1.276e-02
Small eigenvalue found = 2.450e-02
The first mode is                       ....   78
The number of degrees of freedom        ....   96

    -----------------------------------------------------------------
                    Redundant Internal Coordinates


    -----------------------------------------------------------------
         Definition                    Initial Value    Approx d2E/dq
    -----------------------------------------------------------------
      1. B(C   1,C   0)                  1.3928         0.618418   
      2. B(C   2,C   1)                  1.3713         0.669107   
      3. B(C   3,C   0)                  1.3785         0.651767   
      4. B(C   4,C   3)                  1.4099         0.580698   
      5. B(O   5,C   3)                  1.3863         0.567282   
      6. B(C   6,C   4)                  1.4164         0.567038   
      7. B(C   6,C   2)                  1.4033         0.595007   
      8. B(C   7,C   6)                  1.4256         0.548297   
      9. B(C   8,C   7)                  1.3517         0.719178   
     10. B(C   9,C   4)                  1.4403         0.519301   
     11. B(C  10,C   9)                  1.4169         0.566101   
     12. B(C  10,C   8)                  1.4222         0.555116   
     13. B(N  11,C   9)                  1.3412         0.669565   
     14. B(C  12,N  11)                  1.3109         0.748263   
     15. B(C  13,C  12)                  1.3962         0.610754   
     16. B(C  14,C  13)                  1.3734         0.664157   
     17. B(C  14,C  10)                  1.4036         0.594418   
     18. B(C  15,O   5)                  1.3613         0.621767   
     19. B(O  16,C  15)                  1.2251         1.025549   
     20. B(N  17,C  15)                  1.3349         0.685133   
     21. B(C  18,N  17)                  1.4451         0.457037   
     22. B(C  19,N  17)                  1.4453         0.456652   
     23. B(H  20,C  19)                  1.0846         0.367353   
     24. B(H  21,C  19)                  1.0908         0.359105   
     25. B(H  22,C  19)                  1.0907         0.359218   
     26. B(H  23,C  18)                  1.0878         0.363044   
     27. B(H  24,C  18)                  1.0902         0.359817   
     28. B(H  25,C  18)                  1.0907         0.359156   
     29. B(H  26,C   2)                  1.0789         0.375087   
     30. B(H  27,C   0)                  1.0787         0.375377   
     31. B(H  28,C   1)                  1.0783         0.375975   
     32. B(H  29,C   7)                  1.0793         0.374584   
     33. B(H  30,C   8)                  1.0797         0.373919   
     34. B(H  31,C  12)                  1.0816         0.371403   
     35. B(H  32,H  25)                  4.9842         0.000000   
     36. B(H  32,C  13)                  1.0778         0.376653   
     37. B(H  33,C  14)                  1.0803         0.373164   
     38. A(C   1,C   0,C   3)          120.4422         0.437789   
     39. A(C   3,C   0,H  27)          118.5429         0.358433   
     40. A(C   1,C   0,H  27)          121.0128         0.355249   
     41. A(C   2,C   1,H  28)          120.6759         0.360136   
     42. A(C   0,C   1,C   2)          119.8587         0.439868   
     43. A(C   0,C   1,H  28)          119.4473         0.355344   
     44. A(C   1,C   2,H  26)          120.5807         0.359991   
     45. A(C   1,C   2,C   6)          120.7606         0.436817   
     46. A(C   6,C   2,H  26)          118.6583         0.352887   
     47. A(C   4,C   3,O   5)          122.1704         0.419477   
     48. A(C   0,C   3,C   4)          121.1330         0.432856   
     49. A(C   0,C   3,O   5)          116.6852         0.428227   
     50. A(C   3,C   4,C   9)          123.5671         0.415620   
     51. A(C   3,C   4,C   6)          117.6867         0.422187   
     52. A(C   6,C   4,C   9)          118.7455         0.413865   
     53. A(C   3,O   5,C  15)          117.5153         0.421867   
     54. A(C   4,C   6,C   7)          119.6979         0.417885   
     55. A(C   2,C   6,C   7)          120.3047         0.421489   
     56. A(C   2,C   6,C   4)          119.9950         0.424027   
     57. A(C   6,C   7,H  29)          117.7450         0.347970   
     58. A(C   6,C   7,C   8)          121.4701         0.436062   
     59. A(C   8,C   7,H  29)          120.7778         0.364370   
     60. A(C   7,C   8,H  30)          121.3324         0.364259   
     61. A(C  10,C   8,H  30)          118.1017         0.348591   
     62. A(C   7,C   8,C  10)          120.5592         0.437035   
     63. A(C   4,C   9,C  10)          119.3988         0.413744   
     64. A(C  10,C   9,N  11)          121.2215         0.430141   
     65. A(C   4,C   9,N  11)          119.3730         0.423543   
     66. A(C   9,C  10,C  14)          117.9721         0.423827   
     67. A(C   8,C  10,C  14)          122.1133         0.422345   
     68. A(C   8,C  10,C   9)          119.9072         0.418683   
     69. A(C   9,N  11,C  12)          119.3903         0.449387   
     70. A(N  11,C  12,H  31)          115.1711         0.364034   
     71. A(N  11,C  12,C  13)          123.8068         0.444894   
     72. A(C  13,C  12,H  31)          121.0209         0.353859   
     73. A(C  12,C  13,H  32)          120.3250         0.354702   
     74. A(C  12,C  13,C  14)          117.9740         0.438292   
     75. A(C  14,C  13,H  32)          121.6955         0.359791   
     76. A(C  10,C  14,H  33)          119.1813         0.352521   
     77. A(C  10,C  14,C  13)          119.5409         0.436155   
     78. A(C  13,C  14,H  33)          121.2773         0.359222   
     79. A(O  16,C  15,N  17)          124.4507         0.478058   
     80. A(O   5,C  15,N  17)          112.5896         0.436396   
     81. A(O   5,C  15,O  16)          122.6521         0.469605   
     82. A(C  18,N  17,C  19)          115.4748         0.384590   
     83. A(C  15,N  17,C  19)          124.1855         0.412956   
     84. A(C  15,N  17,C  18)          120.1637         0.413017   
     85. A(H  24,C  18,H  25)          109.3173         0.290684   
     86. A(H  23,C  18,H  25)          109.4269         0.291092   
     87. A(N  17,C  18,H  25)          109.9768         0.333136   
     88. A(H  23,C  18,H  24)          109.6502         0.291176   
     89. A(N  17,C  18,H  24)          109.6960         0.333237   
     90. A(N  17,C  18,H  23)          108.7598         0.333731   
     91. A(H  21,C  19,H  22)          109.0923         0.290601   
     92. A(H  20,C  19,H  22)          109.6165         0.291640   
     93. A(N  17,C  19,H  22)          109.3377         0.333099   
     94. A(H  20,C  19,H  21)          109.3731         0.291626   
     95. A(N  17,C  19,H  21)          109.4743         0.333081   
     96. A(N  17,C  19,H  20)          109.9303         0.334339   
     97. D(H  28,C   1,C   0,C   3)   -179.6857         0.026456   
     98. D(C   2,C   1,C   0,C   3)      1.8551         0.026456   
     99. D(H  28,C   1,C   0,H  27)      0.8586         0.026456   
    100. D(C   2,C   1,C   0,H  27)   -177.6006         0.026456   
    101. D(C   6,C   2,C   1,C   0)     -1.9524         0.031305   
    102. D(H  26,C   2,C   1,C   0)    177.8160         0.031305   
    103. D(C   6,C   2,C   1,H  28)    179.6076         0.031305   
    104. D(H  26,C   2,C   1,H  28)     -0.6240         0.031305   
    105. D(O   5,C   3,C   0,C   1)    179.7789         0.029589   
    106. D(C   4,C   3,C   0,H  27)   -179.5470         0.029589   
    107. D(C   4,C   3,C   0,C   1)      0.9841         0.029589   
    108. D(O   5,C   3,C   0,H  27)     -0.7521         0.029589   
    109. D(C   6,C   4,C   3,O   5)    177.6820         0.023170   
    110. D(C   9,C   4,C   3,C   0)    176.7014         0.023170   
    111. D(C   9,C   4,C   3,O   5)     -2.0265         0.023170   
    112. D(C   6,C   4,C   3,C   0)     -3.5901         0.023170   
    113. D(C  15,O   5,C   3,C   4)    -57.1384         0.023347   
    114. D(C  15,O   5,C   3,C   0)    124.0802         0.023347   
    115. D(C   7,C   6,C   4,C   9)      3.7404         0.022047   
    116. D(C   7,C   6,C   4,C   3)   -175.9825         0.022047   
    117. D(C   2,C   6,C   4,C   9)   -176.8189         0.022047   
    118. D(C   2,C   6,C   4,C   3)      3.4581         0.022047   
    119. D(C   7,C   6,C   2,H  26)     -1.0897         0.024385   
    120. D(C   7,C   6,C   2,C   1)    178.6831         0.024385   
    121. D(C   4,C   6,C   2,H  26)    179.4731         0.024385   
    122. D(C   4,C   6,C   2,C   1)     -0.7541         0.024385   
    123. D(H  29,C   7,C   6,C   4)    179.3206         0.020561   
    124. D(H  29,C   7,C   6,C   2)     -0.1183         0.020561   
    125. D(C   8,C   7,C   6,C   4)      0.2800         0.020561   
    126. D(C   8,C   7,C   6,C   2)   -179.1589         0.020561   
    127. D(C  10,C   8,C   7,C   6)     -2.5557         0.036599   
    128. D(H  30,C   8,C   7,H  29)     -0.6056         0.036599   
    129. D(H  30,C   8,C   7,C   6)    178.4061         0.036599   
    130. D(C  10,C   8,C   7,H  29)    178.4326         0.036599   
    131. D(N  11,C   9,C   4,C   6)    173.5735         0.018390   
    132. D(N  11,C   9,C   4,C   3)     -6.7209         0.018390   
    133. D(C  10,C   9,C   4,C   6)     -5.4915         0.018390   
    134. D(C  10,C   9,C   4,C   3)    174.2141         0.018390   
    135. D(C  14,C  10,C   9,N  11)      3.3209         0.021971   
    136. D(C  14,C  10,C   9,C   4)   -177.6319         0.021971   
    137. D(C   8,C  10,C   9,N  11)   -175.7112         0.021971   
    138. D(C   8,C  10,C   9,C   4)      3.3360         0.021971   
    139. D(C  14,C  10,C   8,H  30)      0.7872         0.021094   
    140. D(C  14,C  10,C   8,C   7)   -178.2815         0.021094   
    141. D(C   9,C  10,C   8,H  30)    179.7779         0.021094   
    142. D(C   9,C  10,C   8,C   7)      0.7093         0.021094   
    143. D(C  12,N  11,C   9,C  10)     -2.9312         0.033300   
    144. D(C  12,N  11,C   9,C   4)    178.0214         0.033300   
    145. D(H  31,C  12,N  11,C   9)    179.9250         0.042502   
    146. D(C  13,C  12,N  11,C   9)      0.3084         0.042502   
    147. D(H  32,C  13,C  12,H  31)      1.4068         0.025766   
    148. D(H  32,C  13,C  12,N  11)   -178.9981         0.025766   
    149. D(C  14,C  13,C  12,H  31)   -177.7486         0.025766   
    150. D(C  14,C  13,C  12,N  11)      1.8465         0.025766   
    151. D(H  33,C  14,C  13,H  32)     -0.7429         0.030809   
    152. D(H  33,C  14,C  13,C  12)    178.4003         0.030809   
    153. D(C  10,C  14,C  13,H  32)    179.5329         0.030809   
    154. D(C  10,C  14,C  13,C  12)     -1.3239         0.030809   
    155. D(H  33,C  14,C  10,C   9)    179.1646         0.024334   
    156. D(H  33,C  14,C  10,C   8)     -1.8260         0.024334   
    157. D(C  13,C  14,C  10,C   9)     -1.1054         0.024334   
    158. D(C  13,C  14,C  10,C   8)    177.9040         0.024334   
    159. D(O  16,C  15,O   5,C   3)    -16.5328         0.028375   
    160. D(N  17,C  15,O   5,C   3)    169.5793         0.028375   
    161. D(C  19,N  17,C  15,O  16)    178.7496         0.038681   
    162. D(C  19,N  17,C  15,O   5)     -7.4916         0.038681   
    163. D(C  18,N  17,C  15,O  16)      3.7956         0.038681   
    164. D(C  18,N  17,C  15,O   5)    177.5544         0.038681   
    165. D(H  25,C  18,N  17,C  15)    115.9881         0.017827   
    166. D(H  24,C  18,N  17,C  19)     60.8744         0.017827   
    167. D(H  24,C  18,N  17,C  15)   -123.7484         0.017827   
    168. D(H  23,C  18,N  17,C  19)   -179.2053         0.017827   
    169. D(H  23,C  18,N  17,C  15)     -3.8280         0.017827   
    170. D(H  22,C  19,N  17,C  15)    122.6678         0.017797   
    171. D(H  21,C  19,N  17,C  18)     57.2932         0.017797   
    172. D(H  21,C  19,N  17,C  15)   -117.8748         0.017797   
    173. D(H  20,C  19,N  17,C  18)    177.4574         0.017797   
    174. D(H  20,C  19,N  17,C  15)      2.2894         0.017797   
    -----------------------------------------------------------------

Number of atoms                         .... 34
Number of degrees of freedom            .... 174


         *************************************************************
         *                GEOMETRY OPTIMIZATION CYCLE   1            *
         *************************************************************
---------------------------------
CARTESIAN COORDINATES (ANGSTROEM)
---------------------------------
  C     -3.353763   -0.629383   -0.982919
  C     -2.741636   -1.653968   -1.700833
  C     -1.375561   -1.773615   -1.689856
  C     -2.593778    0.289472   -0.291268
  C     -1.185183    0.230589   -0.307934
  O     -3.283136    1.278912    0.392534
  C     -0.579744   -0.849844   -0.995183
  C      0.837659   -0.999417   -0.966945
  C      1.625324   -0.133243   -0.291347
  C     -0.339816    1.201556    0.337949
  C      1.060994    0.991551    0.371218
  N     -0.891605    2.297094    0.880204
  C     -0.127379    3.161729    1.502184
  C      1.255085    3.020549    1.637094
  C      1.851460    1.930491    1.052068
  C     -3.042149    1.406206    1.726296
  O     -2.495689    0.530247    2.385809
  N     -3.578623    2.515026    2.240771
  C     -3.467297    2.786533    3.655774
  C     -4.199158    3.557185    1.454739
  H     -4.195956    3.280812    0.405976
  H     -3.646869    4.488699    1.585126
  H     -5.226224    3.701140    1.792331
  H     -2.975567    1.943480    4.136125
  H     -4.460958    2.923386    4.082944
  H     -2.877855    3.690056    3.816595
  H     -0.891272   -2.583415   -2.213033
  H     -4.428215   -0.540759   -0.947300
  H     -3.351449   -2.360925   -2.240256
  H      1.264732   -1.840106   -1.491982
  H      2.696456   -0.263065   -0.250346
  H     -0.642669    4.019845    1.911994
  H      1.827592    3.758753    2.174561
  H      2.920408    1.782258    1.101287

----------------------------
CARTESIAN COORDINATES (A.U.)
----------------------------
  NO LB      ZA    FRAG     MASS         X           Y           Z
   0 C     6.0000    0    12.011   -6.337693   -1.189362   -1.857448
   1 C     6.0000    0    12.011   -5.180941   -3.125546   -3.214109
   2 C     6.0000    0    12.011   -2.599433   -3.351646   -3.193364
   3 C     6.0000    0    12.011   -4.901531    0.547022   -0.550417
   4 C     6.0000    0    12.011   -2.239670    0.435749   -0.581911
   5 O     8.0000    0    15.999   -6.204227    2.416794    0.741782
   6 C     6.0000    0    12.011   -1.095558   -1.605972   -1.880623
   7 C     6.0000    0    12.011    1.582946   -1.888624   -1.827261
   8 C     6.0000    0    12.011    3.071417   -0.251792   -0.550566
   9 C     6.0000    0    12.011   -0.642159    2.270612    0.638631
  10 C     6.0000    0    12.011    2.004988    1.873760    0.701500
  11 N     7.0000    0    14.007   -1.684889    4.340879    1.663345
  12 C     6.0000    0    12.011   -0.240711    5.974802    2.838716
  13 C     6.0000    0    12.011    2.371768    5.708011    3.093659
  14 C     6.0000    0    12.011    3.498752    3.648099    1.988121
  15 C     6.0000    0    12.011   -5.748828    2.657344    3.262227
  16 O     8.0000    0    15.999   -4.716168    1.002022    4.508526
  17 N     7.0000    0    14.007   -6.762618    4.752711    4.234444
  18 C     6.0000    0    12.011   -6.552241    5.265784    6.908413
  19 C     6.0000    0    12.011   -7.935259    6.722106    2.749058
  20 H     1.0000    0     1.008   -7.929207    6.199836    0.767184
  21 H     1.0000    0     1.008   -6.891583    8.482411    2.995454
  22 H     1.0000    0     1.008   -9.876132    6.994142    3.387015
  23 H     1.0000    0     1.008   -5.623007    3.672644    7.816144
  24 H     1.0000    0     1.008   -8.429989    5.524398    7.715647
  25 H     1.0000    0     1.008   -5.438359    6.973195    7.212319
  26 H     1.0000    0     1.008   -1.684260   -4.881946   -4.182026
  27 H     1.0000    0     1.008   -8.368114   -1.021886   -1.790137
  28 H     1.0000    0     1.008   -6.333320   -4.461502   -4.233470
  29 H     1.0000    0     1.008    2.389997   -3.477296   -2.819438
  30 H     1.0000    0     1.008    5.095563   -0.497121   -0.473085
  31 H     1.0000    0     1.008   -1.214468    7.596406    3.613144
  32 H     1.0000    0     1.008    3.453649    7.103013    4.109325
  33 H     1.0000    0     1.008    5.518772    3.367979    2.081131

--------------------------------
INTERNAL COORDINATES (ANGSTROEM)
--------------------------------
 C      0   0   0     0.000000000000     0.00000000     0.00000000
 C      1   0   0     1.392793336635     0.00000000     0.00000000
 C      2   1   0     1.371348655864   119.85865297     0.00000000
 C      1   2   3     1.378496044417   120.44216181     1.85505522
 C      4   1   2     1.409924445446   121.13298322     0.98406465
 O      4   1   2     1.386287099869   116.68519967   179.77892542
 C      3   2   1     1.403298276962   120.76060455   358.04757571
 C      7   3   2     1.425553015167   120.30472712   178.68308931
 C      8   7   3     1.351704715708   121.47014140   180.84114555
 C      5   4   1     1.440343017000   123.56711811   176.70136846
 C     10   5   4     1.416854347238   119.39879095   174.21411892
 N     10   5   4     1.341162227086   119.37297598   353.27914604
 C     12  10   5     1.310912837216   119.39025799   178.02136659
 C     13  12  10     1.396187643519   123.80680237     0.30839837
 C     14  13  12     1.373369845533   117.97399062     1.84647426
 C      6   4   1     1.361322957325   117.51534586   124.08024842
 O     16   6   4     1.225104021438   122.65212533   343.46718084
 N     16   6   4     1.334905516282   112.58955871   169.57927629
 C     18  16   6     1.445109990903   120.16369829   177.55440831
 C     18  16   6     1.445339351689   124.18546301   352.50844685
 H     20  18  16     1.084571463392   109.93029758     2.28941525
 H     20  18  16     1.090752840497   109.47426154   242.12524514
 H     20  18  16     1.090667717483   109.33765967   122.66779206
 H     19  18  16     1.087783785639   108.75978669   356.17200121
 H     19  18  16     1.090213639364   109.69596912   236.25163817
 H     19  18  16     1.090714723828   109.97684387   115.98814218
 H      3   2   1     1.078900443126   120.58065766   177.81599562
 H      1   2   3     1.078689585129   121.01278413   182.39936541
 H      2   1   3     1.078256646193   119.44730371   178.45924579
 H      8   7   3     1.079265469431   117.74500983   359.88174011
 H      9   8   7     1.079749460170   121.33237952   178.40613604
 H     13  12  10     1.081587082277   115.17114157   179.92502121
 H     14  13  12     1.077765860465   120.32497009   181.00193283
 H     15  14  13     1.080299169369   121.27729325   178.40034628

---------------------------
INTERNAL COORDINATES (A.U.)
---------------------------
 C      0   0   0     0.000000000000     0.00000000     0.00000000
 C      1   0   0     2.631997967391     0.00000000     0.00000000
 C      2   1   0     2.591473393704   119.85865297     0.00000000
 C      1   2   3     2.604980000641   120.44216181     1.85505522
 C      4   1   2     2.664371071415   121.13298322     0.98406465
 O      4   1   2     2.619702961740   116.68519967   179.77892542
 C      3   2   1     2.651849427662   120.76060455   358.04757571
 C      7   3   2     2.693904788052   120.30472712   178.68308931
 C      8   7   3     2.554351726618   121.47014140   180.84114555
 C      5   4   1     2.721853841036   123.56711811   176.70136846
 C     10   5   4     2.677466687936   119.39879095   174.21411892
 N     10   5   4     2.534429310353   119.37297598   353.27914604
 C     12  10   5     2.477266247780   119.39025799   178.02136659
 C     13  12  10     2.638412277815   123.80680237     0.30839837
 C     14  13  12     2.595292888643   117.97399062     1.84647426
 C      6   4   1     2.572527569164   117.51534586   124.08024842
 O     16   6   4     2.315111086084   122.65212533   343.46718084
 N     16   6   4     2.522605840435   112.58955871   169.57927629
 C     18  16   6     2.730862116199   120.16369829   177.55440831
 C     18  16   6     2.731295545271   124.18546301   352.50844685
 H     20  18  16     2.049543038477   109.93029758     2.28941525
 H     20  18  16     2.061224148336   109.47426154   242.12524514
 H     20  18  16     2.061063289151   109.33765967   122.66779206
 H     19  18  16     2.055613447777   108.75978669   356.17200121
 H     19  18  16     2.060205205864   109.69596912   236.25163817
 H     19  18  16     2.061152118270   109.97684387   115.98814218
 H      3   2   1     2.038826363275   120.58065766   177.81599562
 H      1   2   3     2.038427899407   121.01278413   182.39936541
 H      2   1   3     2.037609763384   119.44730371   178.45924579
 H      8   7   3     2.039516163022   117.74500983   359.88174011
 H      9   8   7     2.040430772971   121.33237952   178.40613604
 H     13  12  10     2.043903375490   115.17114157   179.92502121
 H     14  13  12     2.036682312768   120.32497009   181.00193283
 H     15  14  13     2.041469572810   121.27729325   178.40034628

---------------------
BASIS SET INFORMATION
---------------------
There are 4 groups of distinct atoms

 Group   1 Type C   : 11s5p1d contracted to 4s3p1d pattern {6311/311/1}
 Group   2 Type O   : 11s5p1d contracted to 4s3p1d pattern {6311/311/1}
 Group   3 Type N   : 11s5p1d contracted to 4s3p1d pattern {6311/311/1}
 Group   4 Type H   : 5s contracted to 3s pattern {311}

Atom   0C    basis set group =>   1
Atom   1C    basis set group =>   1
Atom   2C    basis set group =>   1
Atom   3C    basis set group =>   1
Atom   4C    basis set group =>   1
Atom   5O    basis set group =>   2
Atom   6C    basis set group =>   1
Atom   7C    basis set group =>   1
Atom   8C    basis set group =>   1
Atom   9C    basis set group =>   1
Atom  10C    basis set group =>   1
Atom  11N    basis set group =>   3
Atom  12C    basis set group =>   1
Atom  13C    basis set group =>   1
Atom  14C    basis set group =>   1
Atom  15C    basis set group =>   1
Atom  16O    basis set group =>   2
Atom  17N    basis set group =>   3
Atom  18C    basis set group =>   1
Atom  19C    basis set group =>   1
Atom  20H    basis set group =>   4
Atom  21H    basis set group =>   4
Atom  22H    basis set group =>   4
Atom  23H    basis set group =>   4
Atom  24H    basis set group =>   4
Atom  25H    basis set group =>   4
Atom  26H    basis set group =>   4
Atom  27H    basis set group =>   4
Atom  28H    basis set group =>   4
Atom  29H    basis set group =>   4
Atom  30H    basis set group =>   4
Atom  31H    basis set group =>   4
Atom  32H    basis set group =>   4
Atom  33H    basis set group =>   4
---------------------------------
AUXILIARY/J BASIS SET INFORMATION
---------------------------------
There are 4 groups of distinct atoms

 Group   1 Type C   : 12s5p4d2f1g contracted to 6s4p3d1f1g pattern {711111/2111/211/2/1}
 Group   2 Type O   : 12s5p4d2f1g contracted to 6s4p3d1f1g pattern {711111/2111/211/2/1}
 Group   3 Type N   : 12s5p4d2f1g contracted to 6s4p3d1f1g pattern {711111/2111/211/2/1}
 Group   4 Type H   : 5s2p1d contracted to 3s1p1d pattern {311/2/1}

Atom   0C    basis set group =>   1
Atom   1C    basis set group =>   1
Atom   2C    basis set group =>   1
Atom   3C    basis set group =>   1
Atom   4C    basis set group =>   1
Atom   5O    basis set group =>   2
Atom   6C    basis set group =>   1
Atom   7C    basis set group =>   1
Atom   8C    basis set group =>   1
Atom   9C    basis set group =>   1
Atom  10C    basis set group =>   1
Atom  11N    basis set group =>   3
Atom  12C    basis set group =>   1
Atom  13C    basis set group =>   1
Atom  14C    basis set group =>   1
Atom  15C    basis set group =>   1
Atom  16O    basis set group =>   2
Atom  17N    basis set group =>   3
Atom  18C    basis set group =>   1
Atom  19C    basis set group =>   1
Atom  20H    basis set group =>   4
Atom  21H    basis set group =>   4
Atom  22H    basis set group =>   4
Atom  23H    basis set group =>   4
Atom  24H    basis set group =>   4
Atom  25H    basis set group =>   4
Atom  26H    basis set group =>   4
Atom  27H    basis set group =>   4
Atom  28H    basis set group =>   4
Atom  29H    basis set group =>   4
Atom  30H    basis set group =>   4
Atom  31H    basis set group =>   4
Atom  32H    basis set group =>   4
Atom  33H    basis set group =>   4
------------------------------------------------------------------------------
                             ORCA STARTUP CALCULATIONS
                           -- RI-GTO INTEGRALS CHOSEN --
------------------------------------------------------------------------------
------------------------------------------------------------------------------
                   ___                                                        
                  /   \      - P O W E R E D   B Y -                         
                 /     \                                                     
                 |  |  |   _    _      __       _____    __    __             
                 |  |  |  | |  | |    /  \     |  _  \  |  |  /  |          
                  \  \/   | |  | |   /    \    | | | |  |  | /  /          
                 / \  \   | |__| |  /  /\  \   | |_| |  |  |/  /          
                |  |  |   |  __  | /  /__\  \  |    /   |      \           
                |  |  |   | |  | | |   __   |  |    \   |  |\   \          
                \     /   | |  | | |  |  |  |  | |\  \  |  | \   \       
                 \___/    |_|  |_| |__|  |__|  |_| \__\ |__|  \__/        
                                                                              
                      - O R C A' S   B I G   F R I E N D -                    
                                      &                                       
                       - I N T E G R A L  F E E D E R -                       
                                                                              
 v1 FN, 2020, v2 2021, v3 2022-2024                                           
------------------------------------------------------------------------------


----------------------
SHARK INTEGRAL PACKAGE
----------------------

Number of atoms                             ...     34
Number of basis functions                   ...    402
Number of shells                            ...    202
Maximum angular momentum                    ...      2
Integral batch strategy                     ... SHARK/LIBINT Hybrid
RI-J (if used) integral strategy            ... SPLIT-RIJ (Revised 2003 algorithm where possible)
Printlevel                                  ...      1
Contraction scheme used                     ... SEGMENTED contraction
Prescreening option                         ... SCHWARTZ
   Thresh                                   ... 2.500e-11
   Tcut                                     ... 2.500e-12
   Tpresel                                  ... 2.500e-12 
Coulomb Range Separation                    ... NOT USED
Exchange Range Separation                   ... NOT USED
Multipole approximations                    ... NOT USED
Finite Nucleus Model                        ... NOT USED
CABS basis                                  ... NOT available
Auxiliary Coulomb fitting basis             ... AVAILABLE
   # of basis functions in Aux-J            ...   1134
   # of shells in Aux-J                     ...    370
   Maximum angular momentum in Aux-J        ...      4
Auxiliary J/K fitting basis                 ... NOT available
Auxiliary Correlation fitting basis         ... NOT available
Auxiliary 'external' fitting basis          ... NOT available

Checking pre-screening integrals            ... done (  0.0 sec) Dimension = 202
Check shell pair data                       ... done (  0.0 sec)
Shell pair information
Shell pair cut-off parameter TPreSel        ...   2.5e-12
Total number of shell pairs                 ...     20503
Shell pairs after pre-screening             ...     15394
Total number of primitive shell pairs       ...     84717
Primitive shell pairs kept                  ...     38628
          la=0 lb=0:   5259 shell pairs
          la=1 lb=0:   5699 shell pairs
          la=1 lb=1:   1552 shell pairs
          la=2 lb=0:   1733 shell pairs
          la=2 lb=1:    982 shell pairs
          la=2 lb=2:    169 shell pairs

Calculating one electron integrals          ... done (  0.0 sec)
Calculating RI/J V-Matrix + Cholesky decomp.... done (  0.4 sec)
Calculating Nuclear repulsion               ... done (  0.0 sec) ENN=   1545.317247651035 Eh

Diagonalization of the overlap matrix:
Smallest eigenvalue                        ... 7.839e-05
Time for diagonalization                   ...    0.014 sec
Threshold for overlap eigenvalues          ... 1.000e-07
Number of eigenvalues below threshold      ... 0
Time for construction of square roots      ...    0.039 sec
Total time needed                          ...    0.075 sec

-------------------
DFT GRID GENERATION
-------------------

General Integration Accuracy     IntAcc      ... 4.388
Radial Grid Type                 RadialGrid  ... OptM3 with GC (2021)
Angular Grid (max. ang.)         AngularGrid ... 4 (Lebedev-302)
Angular grid pruning method      GridPruning ... 4 (adaptive)
Weight generation scheme         WeightScheme... mBecke (2022)
Basis function cutoff            BFCut       ... 1.0000e-11
Integration weight cutoff        WCut        ... 1.0000e-14
Partially contracted basis set               ... off
Rotationally invariant grid construction     ... off
Angular grids for H and He will be reduced by one unit

Total number of grid points                  ...   164110
Total number of batches                      ...     2579
Average number of points per batch           ...       63
Average number of grid points per atom       ...     4827

--------------------
COSX GRID GENERATION
--------------------

GRIDX 1
-------
General Integration Accuracy     IntAcc      ... 3.816
Radial Grid Type                 RadialGrid  ... OptM3 with GC (2021)
Angular Grid (max. ang.)         AngularGrid ... 1 (Lebedev-50)
Angular grid pruning method      GridPruning ... 4 (adaptive)
Weight generation scheme         WeightScheme... mBecke (2022)
Basis function cutoff            BFCut       ... 1.0000e-11
Integration weight cutoff        WCut        ... 1.0000e-14
Partially contracted basis set               ... on
Rotationally invariant grid construction     ... off
Angular grids for H and He will be reduced by one unit

Total number of grid points                  ...    20845
Total number of batches                      ...      180
Average number of points per batch           ...      115
Average number of grid points per atom       ...      613
UseSFitting                                  ... on

GRIDX 2
-------
General Integration Accuracy     IntAcc      ... 4.020
Radial Grid Type                 RadialGrid  ... OptM3 with GC (2021)
Angular Grid (max. ang.)         AngularGrid ... 2 (Lebedev-110)
Angular grid pruning method      GridPruning ... 4 (adaptive)
Weight generation scheme         WeightScheme... mBecke (2022)
Basis function cutoff            BFCut       ... 1.0000e-11
Integration weight cutoff        WCut        ... 1.0000e-14
Partially contracted basis set               ... on
Rotationally invariant grid construction     ... off
Angular grids for H and He will be reduced by one unit

Total number of grid points                  ...    45481
Total number of batches                      ...      372
Average number of points per batch           ...      122
Average number of grid points per atom       ...     1338
UseSFitting                                  ... on

GRIDX 3
-------
General Integration Accuracy     IntAcc      ... 4.338
Radial Grid Type                 RadialGrid  ... OptM3 with GC (2021)
Angular Grid (max. ang.)         AngularGrid ... 3 (Lebedev-194)
Angular grid pruning method      GridPruning ... 4 (adaptive)
Weight generation scheme         WeightScheme... mBecke (2022)
Basis function cutoff            BFCut       ... 1.0000e-11
Integration weight cutoff        WCut        ... 1.0000e-14
Partially contracted basis set               ... on
Rotationally invariant grid construction     ... off
Angular grids for H and He will be reduced by one unit

Total number of grid points                  ...    99593
Total number of batches                      ...      796
Average number of points per batch           ...      125
Average number of grid points per atom       ...     2929
UseSFitting                                  ... on
Initializing property integral containers    ... done (  0.0 sec)

SHARK setup successfully completed in   4.1 seconds

Maximum memory used throughout the entire STARTUP-calculation: 81.4 MB
-------------------------------------------------------------------------------
                                 ORCA GUESS
                   Start orbitals & Density for SCF / CASSCF
-------------------------------------------------------------------------------

------------
SCF SETTINGS
------------
Hamiltonian:
 Density Functional     Method          .... DFT(GTOs)
 Exchange Functional    Exchange        .... B88
   X-Alpha parameter    XAlpha          ....  0.666667
   Becke's b parameter  XBeta           ....  0.004200
 Correlation Functional Correlation     .... LYP
 LDA part of GGA corr.  LDAOpt          .... VWN-3
 Gradients option       PostSCFGGA      .... off
 Hybrid DFT is turned on
   Fraction HF Exchange ScalHFX         ....  0.200000
   Scaling of DF-GGA-X  ScalDFX         ....  0.720000
   Scaling of DF-GGA-C  ScalDFC         ....  0.810000
   Scaling of DF-LDA-C  ScalLDAC        ....  1.000000
   Perturbative correction              ....  0.000000
   NL short-range parameter             ....  4.800000
 RI-approximation to the Coulomb term is turned on
   Number of AuxJ basis functions       .... 1134
   RIJ-COSX (HFX calculated with COS-X)).... on


General Settings:
 Integral files         IntName         .... 1globalminimum
 Hartree-Fock type      HFTyp           .... RHF
 Total Charge           Charge          ....    0
 Multiplicity           Mult            ....    1
 Number of Electrons    NEL             ....  140
 Basis Dimension        Dim             ....  402
 Nuclear Repulsion      ENuc            ....   1545.3172476510 Eh

Convergence Acceleration:
 AO-DIIS                CNVDIIS         .... on
   Start iteration      DIISMaxIt       ....    12
   Startup error        DIISStart       ....  0.200000
   # of expansion vecs  DIISMaxEq       ....     5
   Bias factor          DIISBfac        ....   1.050
   Max. coefficient     DIISMaxC        ....  10.000
 MO-DIIS                CNVKDIIS        .... off
 Trust-Rad. Augm. Hess. CNVTRAH         .... auto
   Auto Start mean grad. ratio tolernc. ....  1.125000
   Auto Start start iteration           ....    50
   Auto Start num. interpolation iter.  ....    10
   Max. Number of Micro iterations      ....    24
   Max. Number of Macro iterations      .... Maxiter - #DIIS iter
   Number of Davidson start vectors     ....     2
   Converg. threshold    (grad. norm)   ....   1.000e-05
   Grad. Scal. Fac. for Micro threshold ....   0.100
   Minimum threshold for Micro iter.    ....   1.000e-02
   NR start threshold (gradient norm)   ....   1.000e-04
   Initial trust radius                 ....   0.400
   Minimum AH scaling param. (alpha)    ....   1.000
   Maximum AH scaling param. (alpha)    .... 1000.000
   Quad. conv. algorithm                .... NR
   White noise on init. David. guess    .... on
   Maximum white noise                  ....   0.010
   Pseudo random numbers                .... off
   Inactive MOs                         .... canonical
   Orbital update algorithm             .... Taylor
   Preconditioner                       .... Diag
   Full preconditioner red. dimension   ....   250
 SOSCF                  CNVSOSCF        .... on
   Start iteration      SOSCFMaxIt      ....   150
   Startup grad/error   SOSCFStart      ....  0.003300
   Hessian update       SOSCFHessUp     .... L-BFGS
 Level Shifting         CNVShift        .... on
   Level shift para.    LevelShift      ....    0.2500
   Turn off err/grad.   ShiftErr        ....    0.0010
 Zerner damping         CNVZerner       .... off
 Static damping         CNVDamp         .... on
   Fraction old density DampFac         ....    0.7000
   Max. Damping (<1)    DampMax         ....    0.9800
   Min. Damping (>=0)   DampMin         ....    0.0000
   Turn off err/grad.   DampErr         ....    0.1000

SCF Procedure:
 Maximum # iterations   MaxIter         ....   125
 SCF integral mode      SCFMode         .... Direct
   Integral package                     .... SHARK and LIBINT hybrid scheme
 Reset frequency        DirectResetFreq ....    20
 Integral Threshold     Thresh          ....  2.500e-11 Eh
 Primitive CutOff       TCut            ....  2.500e-12 Eh

Convergence Tolerance:
 Convergence Check Mode ConvCheckMode   .... Total+1el-Energy
 Convergence forced     ConvForced      .... 1
 Energy Change          TolE            ....  1.000e-08 Eh
 1-El. energy change                    ....  1.000e-05 Eh
 Orbital Gradient       TolG            ....  1.000e-05
 Orbital Rotation angle TolX            ....  1.000e-05
 DIIS Error             TolErr          ....  5.000e-07

------------------------------
INITIAL GUESS: MODEL POTENTIAL
------------------------------
Loading Hartree-Fock densities                     ... done
Calculating cut-offs                               ... done
Initializing the effective Hamiltonian             ... done
Setting up the integral package (SHARK)            ... done
Starting the Coulomb interaction                   ... done (   0.5 sec)
Making the grid                                    ... done (   0.4 sec)
Mapping shells                                     ... done
Starting the XC term evaluation                    ... done (   0.3 sec)
  promolecular density results
     # of electrons  =    139.988841952
     EX              =   -116.103792401
     EC              =     -4.795254956
     EX+EC           =   -120.899047357
Transforming the Hamiltonian                       ... done (   0.0 sec)
Diagonalizing the Hamiltonian                      ... done (   0.1 sec)
Back transforming the eigenvectors                 ... done (   0.0 sec)
Now organizing SCF variables                       ... done
                      ------------------
                      INITIAL GUESS DONE (   1.4 sec)
                      ------------------
             **** ENERGY FILE WAS UPDATED (1globalminimum.en.tmp) ****
Finished Guess after   1.8 sec
Maximum memory used throughout the entire GUESS-calculation: 48.8 MB

-------------------------------------------------------------------------------------------
                                      ORCA LEAN-SCF
                              memory conserving SCF solver
-------------------------------------------------------------------------------------------

--------------------
CPCM SOLVATION MODEL
--------------------
CPCM parameters:
  Epsilon                                         ...      80.1510
  Refrac                                          ...       1.3328
  Rsolv                                           ...       1.3000
  Surface type                                    ... GAUSSIAN VDW
  Discretization scheme                           ... Constant charge density
    Threshold for H atoms                         ...       5.0000 (charges/Ang^2)
    Threshold for non-H atoms                     ...       5.0000 (charges/Ang^2)
  Epsilon function type                           ...         CPCM
Solvent:                                          ... WATER
Radii:
  Scheme                                          ... Element-dependent radii
  Radius for C  used is    3.8550 Bohr (=   2.0400 Ang.)
  Radius for O  used is    3.4469 Bohr (=   1.8240 Ang.)
  Radius for N  used is    3.5149 Bohr (=   1.8600 Ang.)
  Radius for H  used is    2.4944 Bohr (=   1.3200 Ang.)
Calculating surface                               ...        done! (  0.0s)
Cavity surface points                             ...         2943
Cavity Volume                                     ...    2088.6747
Cavity Surface-area                               ...    1050.1939
Calculating surface distance matrix               ...        done! (  0.0s)
Performing Cholesky decomposition & store         ...        done! (  1.2s)
Overall time for CPCM initialization              ...                 1.2s

----------------------------------------D-I-I-S--------------------------------------------
Iteration    Energy (Eh)           Delta-E    RMSDP     MaxDP     DIISErr   Damp  Time(sec)
-------------------------------------------------------------------------------------------
               ***  Starting incremental Fock matrix formation  ***
    1    -877.8361302875496222     0.00e+00  1.85e-03  7.64e-02  3.49e-01  0.700  15.6
    2    -878.0563129661477433    -2.20e-01  1.38e-03  3.60e-02  1.35e-01  0.700   8.3
                               ***Turning on AO-DIIS***
    3    -878.1474943714847541    -9.12e-02  6.15e-04  1.54e-02  4.23e-02  0.700   8.2
    4    -878.2022995414522484    -5.48e-02  9.63e-04  2.23e-02  2.22e-02  0.000   7.9
    5    -878.3210033799759913    -1.19e-01  2.17e-04  6.53e-03  5.40e-03  0.000   8.2
                              *** Initializing SOSCF ***
---------------------------------------S-O-S-C-F--------------------------------------
Iteration    Energy (Eh)           Delta-E    RMSDP     MaxDP     MaxGrad    Time(sec)
--------------------------------------------------------------------------------------
    6    -878.3215835977885035    -5.80e-04  6.14e-05  1.60e-03  1.98e-03     7.8
               *** Restarting incremental Fock matrix formation ***
    7    -878.3216668263626161    -8.32e-05  4.02e-05  1.56e-03  4.60e-04    16.6
    8    -878.3216559795559988     1.08e-05  2.20e-05  9.78e-04  8.61e-04    10.5
    9    -878.3216744226269839    -1.84e-05  3.09e-06  1.04e-04  1.90e-05     9.5
   10    -878.3216743723714899     5.03e-08  1.63e-06  6.86e-05  3.39e-05     8.2
   11    -878.3216744610608657    -8.87e-08  5.23e-07  1.91e-05  4.39e-06     7.5
   12    -878.3216744588257825     2.24e-09  2.76e-07  1.17e-05  6.69e-06     6.6
                 **** Energy Check signals convergence ****

               *****************************************************
               *                     SUCCESS                       *
               *           SCF CONVERGED AFTER  12 CYCLES          *
               *****************************************************

Recomputing exchange energy using gridx3       ... done (   24.077 sec)
Old exchange energy                            :    -23.584135041 Eh
New exchange energy                            :    -23.584131107 Eh
Exchange energy change after final integration :      0.000003934 Eh
Total energy after final integration           :   -878.321670525 Eh
             **** ENERGY FILE WAS UPDATED (1globalminimum.en.tmp) ****

----------------
TOTAL SCF ENERGY
----------------

Total Energy       :       -878.32167052465627 Eh          -23900.34773 eV

Components:
Nuclear Repulsion  :       1545.31724765103490 Eh           42050.22010 eV
Electronic Energy  :      -2423.61638225934394 Eh          -65949.95459 eV
One Electron Energy:      -4264.01594926624966 Eh         -116029.77282 eV
Two Electron Energy:       1840.39956700690573 Eh           50079.81823 eV
CPCM Dielectric    :         -0.02253985051676 Eh              -0.61334 eV

Virial components:
Potential Energy   :      -1753.88189521159984 Eh          -47725.55269 eV
Kinetic Energy     :        875.56022468694357 Eh           23825.20496 eV
Virial Ratio       :          2.00315391878234

DFT components:
N(Alpha)           :       69.999981778224 electrons
N(Beta)            :       69.999981778224 electrons
N(Total)           :      139.999963556447 electrons
E(X)               :      -93.743967647909 Eh       
E(C)               :       -6.166291866682 Eh       
E(XC)              :      -99.910259514591 Eh       

CPCM Solvation Model Properties:
Surface-charge          :         -0.02757050721358
Corrected charge        :          0.00000000000000
Outlying charge corr.   :          0.00004336846357 Eh               0.00118 eV
Free-energy (cav+disp)  :  This term is not implemented in the current solvation scheme

---------------
SCF CONVERGENCE
---------------

  Last Energy change         ...   -2.2351e-09  Tolerance :   1.0000e-08
  Last MAX-Density change    ...    1.1697e-05  Tolerance :   1.0000e-07
  Last RMS-Density change    ...    2.7587e-07  Tolerance :   5.0000e-09
  Last DIIS Error            ...    1.9834e-03  Tolerance :   5.0000e-07
  Last Orbital Gradient      ...    6.6930e-06  Tolerance :   1.0000e-05
  Last Orbital Rotation      ...    9.9654e-06  Tolerance :   1.0000e-05


----------------
ORBITAL ENERGIES
----------------

  NO   OCC          E(Eh)            E(eV) 
   0   2.0000     -19.167168      -521.5652 
   1   2.0000     -19.080060      -519.1948 
   2   2.0000     -14.339775      -390.2051 
   3   2.0000     -14.309017      -389.3682 
   4   2.0000     -10.315701      -280.7045 
   5   2.0000     -10.245937      -278.8061 
   6   2.0000     -10.219864      -278.0967 
   7   2.0000     -10.208472      -277.7866 
   8   2.0000     -10.194294      -277.4009 
   9   2.0000     -10.193575      -277.3813 
  10   2.0000     -10.192579      -277.3542 
  11   2.0000     -10.191121      -277.3145 
  12   2.0000     -10.191098      -277.3139 
  13   2.0000     -10.190494      -277.2974 
  14   2.0000     -10.180872      -277.0356 
  15   2.0000     -10.180667      -277.0300 
  16   2.0000     -10.180417      -277.0232 
  17   2.0000     -10.179941      -277.0103 
  18   2.0000     -10.178673      -276.9758 
  19   2.0000     -10.176305      -276.9113 
  20   2.0000      -1.119442       -30.4616 
  21   2.0000      -1.017983       -27.7007 
  22   2.0000      -0.962328       -26.1863 
  23   2.0000      -0.947792       -25.7907 
  24   2.0000      -0.885363       -24.0920 
  25   2.0000      -0.842172       -22.9167 
  26   2.0000      -0.810753       -22.0617 
  27   2.0000      -0.786501       -21.4018 
  28   2.0000      -0.753733       -20.5101 
  29   2.0000      -0.747629       -20.3440 
  30   2.0000      -0.722043       -19.6478 
  31   2.0000      -0.708031       -19.2665 
  32   2.0000      -0.658387       -17.9156 
  33   2.0000      -0.651238       -17.7211 
  34   2.0000      -0.633500       -17.2384 
  35   2.0000      -0.622876       -16.9493 
  36   2.0000      -0.575477       -15.6595 
  37   2.0000      -0.550462       -14.9788 
  38   2.0000      -0.537854       -14.6358 
  39   2.0000      -0.534285       -14.5386 
  40   2.0000      -0.515122       -14.0172 
  41   2.0000      -0.498925       -13.5764 
  42   2.0000      -0.492726       -13.4078 
  43   2.0000      -0.484885       -13.1944 
  44   2.0000      -0.479980       -13.0609 
  45   2.0000      -0.467110       -12.7107 
  46   2.0000      -0.447281       -12.1711 
  47   2.0000      -0.444728       -12.1017 
  48   2.0000      -0.437851       -11.9145 
  49   2.0000      -0.431940       -11.7537 
  50   2.0000      -0.424720       -11.5572 
  51   2.0000      -0.412151       -11.2152 
  52   2.0000      -0.408067       -11.1041 
  53   2.0000      -0.404508       -11.0072 
  54   2.0000      -0.403949       -10.9920 
  55   2.0000      -0.401419       -10.9232 
  56   2.0000      -0.386865       -10.5271 
  57   2.0000      -0.384707       -10.4684 
  58   2.0000      -0.375507       -10.2181 
  59   2.0000      -0.365144        -9.9361 
  60   2.0000      -0.355983        -9.6868 
  61   2.0000      -0.341932        -9.3045 
  62   2.0000      -0.318742        -8.6734 
  63   2.0000      -0.305236        -8.3059 
  64   2.0000      -0.280046        -7.6204 
  65   2.0000      -0.278954        -7.5907 
  66   2.0000      -0.262408        -7.1405 
  67   2.0000      -0.248452        -6.7607 
  68   2.0000      -0.245184        -6.6718 
  69   2.0000      -0.226442        -6.1618 
  70   0.0000      -0.060340        -1.6419 
  71   0.0000      -0.051464        -1.4004 
  72   0.0000      -0.011826        -0.3218 
  73   0.0000       0.016203         0.4409 
  74   0.0000       0.043338         1.1793 
  75   0.0000       0.054133         1.4730 
  76   0.0000       0.058045         1.5795 
  77   0.0000       0.061843         1.6828 
  78   0.0000       0.066193         1.8012 
  79   0.0000       0.081698         2.2231 
  80   0.0000       0.091302         2.4845 
*Only the first 10 virtual orbitals were printed.

                    ********************************
                    * MULLIKEN POPULATION ANALYSIS *
                    ********************************

-----------------------
MULLIKEN ATOMIC CHARGES
-----------------------
   0 C :   -0.227605
   1 C :   -0.217725
   2 C :   -0.229978
   3 C :    0.214631
   4 C :    0.020982
   5 O :   -0.371313
   6 C :    0.019572
   7 C :   -0.227121
   8 C :   -0.233921
   9 C :    0.152425
  10 C :   -0.017725
  11 N :   -0.397461
  12 C :   -0.037704
  13 C :   -0.300249
  14 C :   -0.098219
  15 C :    0.558887
  16 O :   -0.464703
  17 N :   -0.321533
  18 C :   -0.526738
  19 C :   -0.524844
  20 H :    0.242416
  21 H :    0.229159
  22 H :    0.231534
  23 H :    0.231736
  24 H :    0.232890
  25 H :    0.232033
  26 H :    0.226852
  27 H :    0.228904
  28 H :    0.227079
  29 H :    0.229229
  30 H :    0.227226
  31 H :    0.225115
  32 H :    0.229947
  33 H :    0.236222
Sum of atomic charges:    0.0000000

--------------------------------
MULLIKEN REDUCED ORBITAL CHARGES
--------------------------------
  0 C s       :     3.180126  s :     3.180126
      pz      :     0.988328  p :     2.989276
      px      :     1.027009
      py      :     0.973939
      dz2     :     0.011054  d :     0.058204
      dxz     :     0.007635
      dyz     :     0.008687
      dx2y2   :     0.019077
      dxy     :     0.011751

  1 C s       :     3.197808  s :     3.197808
      pz      :     0.983098  p :     2.956751
      px      :     0.979227
      py      :     0.994426
      dz2     :     0.006370  d :     0.063166
      dxz     :     0.014925
      dyz     :     0.008247
      dx2y2   :     0.013410
      dxy     :     0.020213

  2 C s       :     3.190480  s :     3.190480
      pz      :     0.997840  p :     2.978216
      px      :     0.963991
      py      :     1.016384
      dz2     :     0.005618  d :     0.061282
      dxz     :     0.014270
      dyz     :     0.007933
      dx2y2   :     0.014342
      dxy     :     0.019120

  3 C s       :     3.127242  s :     3.127242
      pz      :     0.935371  p :     2.543655
      px      :     0.862579
      py      :     0.745704
      dz2     :     0.015548  d :     0.114473
      dxz     :     0.023214
      dyz     :     0.016241
      dx2y2   :     0.029932
      dxy     :     0.029538

  4 C s       :     3.025987  s :     3.025987
      pz      :     0.977644  p :     2.884593
      px      :     0.866427
      py      :     1.040521
      dz2     :     0.009105  d :     0.068438
      dxz     :     0.013795
      dyz     :     0.008690
      dx2y2   :     0.018645
      dxy     :     0.018203

  5 O s       :     3.807694  s :     3.807694
      pz      :     1.273858  p :     4.548658
      px      :     1.682043
      py      :     1.592758
      dz2     :     0.005110  d :     0.014961
      dxz     :     0.003013
      dyz     :     0.002356
      dx2y2   :     0.001685
      dxy     :     0.002796

  6 C s       :     3.084631  s :     3.084631
      pz      :     0.941352  p :     2.819462
      px      :     0.934212
      py      :     0.943897
      dz2     :     0.010495  d :     0.076335
      dxz     :     0.015326
      dyz     :     0.009805
      dx2y2   :     0.020560
      dxy     :     0.020150

  7 C s       :     3.193447  s :     3.193447
      pz      :     1.002623  p :     2.971681
      px      :     0.949640
      py      :     1.019418
      dz2     :     0.006667  d :     0.061993
      dxz     :     0.012888
      dyz     :     0.008902
      dx2y2   :     0.016970
      dxy     :     0.016566

  8 C s       :     3.203143  s :     3.203143
      pz      :     0.975945  p :     2.968776
      px      :     1.038173
      py      :     0.954658
      dz2     :     0.010932  d :     0.062003
      dxz     :     0.007129
      dyz     :     0.009595
      dx2y2   :     0.022111
      dxy     :     0.012235

  9 C s       :     3.057228  s :     3.057228
      pz      :     0.930791  p :     2.691020
      px      :     0.928659
      py      :     0.831570
      dz2     :     0.011450  d :     0.099326
      dxz     :     0.015712
      dyz     :     0.014744
      dx2y2   :     0.027696
      dxy     :     0.029725

 10 C s       :     3.072930  s :     3.072930
      pz      :     0.967306  p :     2.870581
      px      :     0.893447
      py      :     1.009828
      dz2     :     0.010119  d :     0.074214
      dxz     :     0.013007
      dyz     :     0.010602
      dx2y2   :     0.021182
      dxy     :     0.019303

 11 N s       :     3.627954  s :     3.627954
      pz      :     1.114858  p :     3.732601
      px      :     1.537666
      py      :     1.080078
      dz2     :     0.005333  d :     0.036906
      dxz     :     0.007338
      dyz     :     0.005640
      dx2y2   :     0.006635
      dxy     :     0.011961

 12 C s       :     3.138472  s :     3.138472
      pz      :     0.926078  p :     2.809846
      px      :     0.913835
      py      :     0.969934
      dz2     :     0.009296  d :     0.089386
      dxz     :     0.017128
      dyz     :     0.011202
      dx2y2   :     0.026444
      dxy     :     0.025316

 13 C s       :     3.236599  s :     3.236599
      pz      :     1.012460  p :     3.004074
      px      :     0.973358
      py      :     1.018256
      dz2     :     0.005519  d :     0.059575
      dxz     :     0.011450
      dyz     :     0.009040
      dx2y2   :     0.015197
      dxy     :     0.018369

 14 C s       :     3.154435  s :     3.154435
      pz      :     0.935096  p :     2.881402
      px      :     0.998686
      py      :     0.947619
      dz2     :     0.010276  d :     0.062383
      dxz     :     0.006887
      dyz     :     0.009709
      dx2y2   :     0.021903
      dxy     :     0.013607

 15 C s       :     2.896004  s :     2.896004
      pz      :     0.713764  p :     2.314643
      px      :     0.812953
      py      :     0.787927
      dz2     :     0.068801  d :     0.230466
      dxz     :     0.036706
      dyz     :     0.047930
      dx2y2   :     0.042044
      dxy     :     0.034985

 16 O s       :     3.825360  s :     3.825360
      pz      :     1.620164  p :     4.623475
      px      :     1.501629
      py      :     1.501682
      dz2     :     0.002023  d :     0.015868
      dxz     :     0.002458
      dyz     :     0.004563
      dx2y2   :     0.003174
      dxy     :     0.003650

 17 N s       :     3.464094  s :     3.464094
      pz      :     1.133969  p :     3.821898
      px      :     1.501088
      py      :     1.186841
      dz2     :     0.008723  d :     0.035542
      dxz     :     0.005871
      dyz     :     0.009508
      dx2y2   :     0.005732
      dxy     :     0.005708

 18 C s       :     3.321213  s :     3.321213
      pz      :     0.816734  p :     3.134111
      px      :     1.156051
      py      :     1.161326
      dz2     :     0.020691  d :     0.071414
      dxz     :     0.017002
      dyz     :     0.012439
      dx2y2   :     0.008789
      dxy     :     0.012493

 19 C s       :     3.317843  s :     3.317843
      pz      :     1.078179  p :     3.135587
      px      :     1.087749
      py      :     0.969659
      dz2     :     0.017154  d :     0.071415
      dxz     :     0.007874
      dyz     :     0.012245
      dx2y2   :     0.018003
      dxy     :     0.016139

 20 H s       :     0.757584  s :     0.757584

 21 H s       :     0.770841  s :     0.770841

 22 H s       :     0.768466  s :     0.768466

 23 H s       :     0.768264  s :     0.768264

 24 H s       :     0.767110  s :     0.767110

 25 H s       :     0.767967  s :     0.767967

 26 H s       :     0.773148  s :     0.773148

 27 H s       :     0.771096  s :     0.771096

 28 H s       :     0.772921  s :     0.772921

 29 H s       :     0.770771  s :     0.770771

 30 H s       :     0.772774  s :     0.772774

 31 H s       :     0.774885  s :     0.774885

 32 H s       :     0.770053  s :     0.770053

 33 H s       :     0.763778  s :     0.763778



                     *******************************
                     * LOEWDIN POPULATION ANALYSIS *
                     *******************************

----------------------
LOEWDIN ATOMIC CHARGES
----------------------
   0 C :   -0.117835
   1 C :   -0.102866
   2 C :   -0.104041
   3 C :   -0.005563
   4 C :   -0.038372
   5 O :    0.064406
   6 C :   -0.031420
   7 C :   -0.092840
   8 C :   -0.097382
   9 C :   -0.031554
  10 C :   -0.050174
  11 N :    0.002908
  12 C :   -0.098042
  13 C :   -0.128752
  14 C :   -0.060384
  15 C :   -0.127451
  16 O :   -0.206941
  17 N :    0.046203
  18 C :   -0.241591
  19 C :   -0.244702
  20 H :    0.117530
  21 H :    0.110697
  22 H :    0.112331
  23 H :    0.116485
  24 H :    0.112875
  25 H :    0.110907
  26 H :    0.122950
  27 H :    0.124186
  28 H :    0.123989
  29 H :    0.125027
  30 H :    0.124438
  31 H :    0.109897
  32 H :    0.126965
  33 H :    0.128116

-------------------------------
LOEWDIN REDUCED ORBITAL CHARGES
-------------------------------
  0 C s       :     2.831492  s :     2.831492
      pz      :     1.031751  p :     3.156440
      px      :     1.069226
      py      :     1.055463
      dz2     :     0.021261  d :     0.129902
      dxz     :     0.018087
      dyz     :     0.022531
      dx2y2   :     0.037633
      dxy     :     0.030390

  1 C s       :     2.827329  s :     2.827329
      pz      :     0.998774  p :     3.138289
      px      :     1.102401
      py      :     1.037113
      dz2     :     0.013593  d :     0.137249
      dxz     :     0.030931
      dyz     :     0.016205
      dx2y2   :     0.033901
      dxy     :     0.042619

  2 C s       :     2.826101  s :     2.826101
      pz      :     1.010164  p :     3.144434
      px      :     1.095505
      py      :     1.038765
      dz2     :     0.012097  d :     0.133506
      dxz     :     0.030325
      dyz     :     0.014279
      dx2y2   :     0.035252
      dxy     :     0.041553

  3 C s       :     2.788978  s :     2.788978
      pz      :     0.966580  p :     2.965251
      px      :     1.056233
      py      :     0.942438
      dz2     :     0.031316  d :     0.251333
      dxz     :     0.049703
      dyz     :     0.036322
      dx2y2   :     0.066410
      dxy     :     0.067581

  4 C s       :     2.782803  s :     2.782803
      pz      :     1.005351  p :     3.093890
      px      :     1.051229
      py      :     1.037311
      dz2     :     0.019316  d :     0.161680
      dxz     :     0.030717
      dyz     :     0.020651
      dx2y2   :     0.046285
      dxy     :     0.044710

  5 O s       :     3.362081  s :     3.362081
      pz      :     1.329279  p :     4.548523
      px      :     1.653460
      py      :     1.565783
      dz2     :     0.009691  d :     0.024990
      dxz     :     0.004738
      dyz     :     0.004332
      dx2y2   :     0.002281
      dxy     :     0.003948

  6 C s       :     2.778649  s :     2.778649
      pz      :     0.982964  p :     3.078677
      px      :     1.064928
      py      :     1.030786
      dz2     :     0.022102  d :     0.174095
      dxz     :     0.033328
      dyz     :     0.023196
      dx2y2   :     0.048297
      dxy     :     0.047172

  7 C s       :     2.827527  s :     2.827527
      pz      :     1.010138  p :     3.130898
      px      :     1.071155
      py      :     1.049605
      dz2     :     0.013380  d :     0.134416
      dxz     :     0.028346
      dyz     :     0.016548
      dx2y2   :     0.039258
      dxy     :     0.036884

  8 C s       :     2.827220  s :     2.827220
      pz      :     1.010956  p :     3.135218
      px      :     1.074214
      py      :     1.050048
      dz2     :     0.020591  d :     0.134944
      dxz     :     0.016510
      dyz     :     0.023378
      dx2y2   :     0.044037
      dxy     :     0.030427

  9 C s       :     2.781574  s :     2.781574
      pz      :     0.958017  p :     3.022523
      px      :     1.062148
      py      :     1.002359
      dz2     :     0.024229  d :     0.227457
      dxz     :     0.034670
      dyz     :     0.032268
      dx2y2   :     0.062644
      dxy     :     0.073645

 10 C s       :     2.782542  s :     2.782542
      pz      :     0.984848  p :     3.095832
      px      :     1.075243
      py      :     1.035741
      dz2     :     0.021139  d :     0.171800
      dxz     :     0.029556
      dyz     :     0.023905
      dx2y2   :     0.050053
      dxy     :     0.047147

 11 N s       :     3.129047  s :     3.129047
[...]
 51:    999.16   0.004329   21.88  0.001352  (-0.024935  0.020187  0.017964)
 52:   1018.02   0.038553  194.83  0.011818  ( 0.038435 -0.059687 -0.082331)
 53:   1068.55   0.004139   20.92  0.001209  ( 0.028668  0.019136  0.004552)
 54:   1084.96   0.031001  156.67  0.008917  (-0.022342  0.045196  0.079843)
 55:   1090.14   0.030583  154.56  0.008755  (-0.029207  0.069427  0.055512)
 56:   1095.58   0.011069   55.94  0.003153  (-0.019647 -0.040883 -0.033098)
 57:   1114.32   0.123306  623.14  0.034532  (-0.089255  0.102919  0.126385)
 58:   1130.20   0.012609   63.72  0.003482  (-0.030828  0.023167  0.044660)
 59:   1132.93   0.002947   14.89  0.000812  (-0.015385  0.022145  0.009205)
 60:   1170.54   0.005802   29.32  0.001547  (-0.017944  0.015981  0.031136)
 61:   1178.61   0.001050    5.31  0.000278  ( 0.011763 -0.006547  0.009836)
 62:   1202.55   0.012856   64.97  0.003336  (-0.048560  0.013901  0.028012)
 63:   1208.04   0.011560   58.42  0.002986  (-0.008301  0.026315  0.047168)
 64:   1255.38   0.000158    0.80  0.000039  ( 0.005047  0.003573 -0.001008)
 65:   1258.79   0.029943  151.32  0.007423  ( 0.041862 -0.032621 -0.067872)
 66:   1283.18   0.001938    9.79  0.000471  ( 0.008999  0.018181  0.007736)
 67:   1288.13   0.002553   12.90  0.000619  ( 0.019626 -0.009216  0.012183)
 68:   1334.37   0.022030  111.33  0.005152  ( 0.036231 -0.043761 -0.043866)
 69:   1367.02   0.007768   39.26  0.001773  (-0.027551 -0.026341 -0.017901)
 70:   1382.11   0.000828    4.18  0.000187  (-0.007502 -0.002766 -0.011092)
 71:   1409.64   0.033568  169.64  0.007431  ( 0.035617 -0.049648 -0.060810)
 72:   1417.78   0.009419   47.60  0.002073  (-0.031072  0.021562  0.025352)
 73:   1425.23   0.002526   12.77  0.000553  ( 0.017821 -0.013542 -0.007224)
 74:   1451.40   0.004097   20.71  0.000881  (-0.016333  0.023991 -0.006218)
 75:   1456.34   0.002052   10.37  0.000440  (-0.018604 -0.007197  0.006466)
 76:   1461.19   0.004642   23.46  0.000991  (-0.024839  0.012358  0.014885)
 77:   1471.41   0.005489   27.74  0.001164  ( 0.008684 -0.024116  0.022522)
 78:   1490.30   0.000176    0.89  0.000037  ( 0.002862 -0.000564  0.005315)
 79:   1500.36   0.005872   29.67  0.001221  (-0.034358 -0.005396  0.003421)
 80:   1502.80   0.001762    8.91  0.000366  (-0.013742  0.003122  0.012938)
 81:   1503.49   0.007100   35.88  0.001474  (-0.028110  0.013659 -0.022291)
 82:   1517.44   0.000670    3.39  0.000138  ( 0.008436  0.007200 -0.003843)
 83:   1531.88   0.014661   74.09  0.002987  ( 0.018350 -0.027732 -0.043369)
 84:   1548.02   0.003508   17.73  0.000707  ( 0.020268 -0.016927 -0.003147)
 85:   1554.06   0.005799   29.30  0.001164  (-0.030429 -0.009683 -0.012030)
 86:   1573.04   0.003735   18.88  0.000741  (-0.013433  0.020390  0.012034)
 87:   1765.04   0.177070  894.84  0.031306  (-0.081481  0.152296 -0.038383)
 88:   3024.60   0.008291   41.90  0.000855  (-0.003541  0.017753 -0.022972)
 89:   3029.49   0.021579  109.05  0.002223  (-0.003602 -0.042889 -0.019247)
 90:   3094.52   0.016077   81.24  0.001621  (-0.039029 -0.002326  0.009620)
 91:   3096.47   0.003689   18.64  0.000372  ( 0.018983 -0.002686 -0.002048)
 92:   3151.67   0.005641   28.51  0.000559  ( 0.008486 -0.020058 -0.009175)
 93:   3168.75   0.001703    8.61  0.000168  ( 0.003779 -0.011023  0.005654)
 94:   3179.15   0.000209    1.05  0.000020  ( 0.004085  0.001592  0.001129)
 95:   3183.62   0.004677   23.63  0.000458  ( 0.011391 -0.016383 -0.007762)
 96:   3186.90   0.001694    8.56  0.000166  (-0.003762 -0.003870 -0.011694)
 97:   3187.98   0.004498   22.73  0.000440  ( 0.017768 -0.008849 -0.006804)
 98:   3195.52   0.000604    3.05  0.000059  (-0.006410  0.004205  0.000471)
 99:   3198.02   0.009274   46.87  0.000905  ( 0.019462  0.018635  0.013379)
100:   3200.62   0.007669   38.76  0.000748  (-0.012401  0.020667  0.012918)
101:   3219.27   0.004341   21.94  0.000421  (-0.014670 -0.010865 -0.009358)

* The epsilon (eps) is given for a Dirac delta lineshape.
** The dipole moment derivative (T) already includes vibrational overlap.

The first frequency considered to be a vibration is 6
The total number of vibrations considered is 96


--------------------------
THERMOCHEMISTRY AT 298.15K
--------------------------

Temperature         ...   298.15 K
Pressure            ...     1.00 atm
Total Mass          ...   266.30 AMU
Quasi RRHO          ...     True
Cut-Off Frequency   ...     1.00 cm^-1

Throughout the following assumptions are being made:
  (1) The electronic state is orbitally nondegenerate
  (2) There are no thermally accessible electronically excited states
  (3) Hindered rotations indicated by low frequency modes are not
      treated as such but are treated as vibrations and this may
      cause some error
  (4) All equations used are the standard statistical mechanics
      equations for an ideal gas
  (5) All vibrations are strictly harmonic

freq.      33.61  E(vib)   ...       0.55 
freq.      40.77  E(vib)   ...       0.54 
freq.      46.59  E(vib)   ...       0.53 
freq.      65.19  E(vib)   ...       0.50 
freq.      87.51  E(vib)   ...       0.48 
freq.     108.27  E(vib)   ...       0.45 
freq.     112.89  E(vib)   ...       0.45 
freq.     138.90  E(vib)   ...       0.42 
freq.     181.89  E(vib)   ...       0.37 
freq.     198.59  E(vib)   ...       0.35 
freq.     209.78  E(vib)   ...       0.34 
freq.     230.22  E(vib)   ...       0.32 
freq.     258.16  E(vib)   ...       0.30 
freq.     278.89  E(vib)   ...       0.28 
freq.     353.17  E(vib)   ...       0.22 
freq.     364.41  E(vib)   ...       0.22 
freq.     367.53  E(vib)   ...       0.21 
freq.     403.83  E(vib)   ...       0.19 
freq.     449.31  E(vib)   ...       0.17 
freq.     457.78  E(vib)   ...       0.16 
freq.     463.12  E(vib)   ...       0.16 
freq.     493.00  E(vib)   ...       0.14 
freq.     508.15  E(vib)   ...       0.14 
freq.     524.52  E(vib)   ...       0.13 
freq.     537.79  E(vib)   ...       0.12 
freq.     580.09  E(vib)   ...       0.11 
freq.     597.78  E(vib)   ...       0.10 
freq.     630.95  E(vib)   ...       0.09 
freq.     667.26  E(vib)   ...       0.08 
freq.     670.03  E(vib)   ...       0.08 
freq.     688.51  E(vib)   ...       0.07 
freq.     702.61  E(vib)   ...       0.07 
freq.     712.13  E(vib)   ...       0.07 
freq.     746.08  E(vib)   ...       0.06 
freq.     780.29  E(vib)   ...       0.05 
freq.     810.42  E(vib)   ...       0.05 
freq.     817.67  E(vib)   ...       0.05 
freq.     828.58  E(vib)   ...       0.04 
freq.     837.92  E(vib)   ...       0.04 
freq.     848.68  E(vib)   ...       0.04 
freq.     896.19  E(vib)   ...       0.03 
freq.     918.45  E(vib)   ...       0.03 
freq.     928.93  E(vib)   ...       0.03 
freq.     944.67  E(vib)   ...       0.03 
freq.     973.94  E(vib)   ...       0.03 
freq.     999.16  E(vib)   ...       0.02 
freq.    1018.02  E(vib)   ...       0.02 
freq.    1068.55  E(vib)   ...       0.02 
freq.    1084.96  E(vib)   ...       0.02 
freq.    1090.14  E(vib)   ...       0.02 
freq.    1095.58  E(vib)   ...       0.02 
freq.    1114.32  E(vib)   ...       0.01 
freq.    1130.20  E(vib)   ...       0.01 
freq.    1132.93  E(vib)   ...       0.01 
freq.    1170.54  E(vib)   ...       0.01 
freq.    1178.61  E(vib)   ...       0.01 
freq.    1202.55  E(vib)   ...       0.01 
freq.    1208.04  E(vib)   ...       0.01 
freq.    1255.38  E(vib)   ...       0.01 
freq.    1258.79  E(vib)   ...       0.01 
freq.    1283.18  E(vib)   ...       0.01 
freq.    1288.13  E(vib)   ...       0.01 
freq.    1334.37  E(vib)   ...       0.01 
freq.    1367.02  E(vib)   ...       0.01 
freq.    1382.11  E(vib)   ...       0.01 
freq.    1409.64  E(vib)   ...       0.00 
freq.    1417.78  E(vib)   ...       0.00 
freq.    1425.23  E(vib)   ...       0.00 
freq.    1451.40  E(vib)   ...       0.00 
freq.    1456.34  E(vib)   ...       0.00 
freq.    1461.19  E(vib)   ...       0.00 
freq.    1471.41  E(vib)   ...       0.00 
freq.    1490.30  E(vib)   ...       0.00 
freq.    1500.36  E(vib)   ...       0.00 
freq.    1502.80  E(vib)   ...       0.00 
freq.    1503.49  E(vib)   ...       0.00 
freq.    1517.44  E(vib)   ...       0.00 
freq.    1531.88  E(vib)   ...       0.00 
freq.    1548.02  E(vib)   ...       0.00 
freq.    1554.06  E(vib)   ...       0.00 
freq.    1573.04  E(vib)   ...       0.00 
freq.    1765.04  E(vib)   ...       0.00 
freq.    3024.60  E(vib)   ...       0.00 
freq.    3029.49  E(vib)   ...       0.00 
freq.    3094.52  E(vib)   ...       0.00 
freq.    3096.47  E(vib)   ...       0.00 
freq.    3151.67  E(vib)   ...       0.00 
freq.    3168.75  E(vib)   ...       0.00 
freq.    3179.15  E(vib)   ...       0.00 
freq.    3183.62  E(vib)   ...       0.00 
freq.    3186.90  E(vib)   ...       0.00 
freq.    3187.98  E(vib)   ...       0.00 
freq.    3195.52  E(vib)   ...       0.00 
freq.    3198.02  E(vib)   ...       0.00 
freq.    3200.62  E(vib)   ...       0.00 
freq.    3219.27  E(vib)   ...       0.00 

------------
INNER ENERGY
------------

The inner energy is: U= E(el) + E(ZPE) + E(vib) + E(rot) + E(trans)
    E(el)   - is the total energy from the electronic structure calculation
              = E(kin-el) + E(nuc-el) + E(el-el) + E(nuc-nuc)
    E(ZPE)  - the the zero temperature vibrational energy from the frequency calculation
    E(vib)  - the the finite temperature correction to E(ZPE) due to population
              of excited vibrational states
    E(rot)  - is the rotational thermal energy
    E(trans)- is the translational thermal energy

Summary of contributions to the inner energy U:
Electronic energy                ...   -878.19248998 Eh
Zero point energy                ...      0.26393409 Eh     165.62 kcal/mol
Thermal vibrational correction   ...      0.01464860 Eh       9.19 kcal/mol
Thermal rotational correction    ...      0.00141627 Eh       0.89 kcal/mol
Thermal translational correction ...      0.00141627 Eh       0.89 kcal/mol
-----------------------------------------------------------------------
Total thermal energy                   -877.91107475 Eh


Summary of corrections to the electronic energy:
(perhaps to be used in another calculation)
Total thermal correction                  0.01748114 Eh      10.97 kcal/mol
Non-thermal (ZPE) correction              0.26393409 Eh     165.62 kcal/mol
-----------------------------------------------------------------------
Total correction                          0.28141523 Eh     176.59 kcal/mol


--------
ENTHALPY
--------

The enthalpy is H = U + kB*T
                kB is Boltzmann's constant
Total thermal energy              ...   -877.91107475 Eh 
Thermal Enthalpy correction       ...      0.00094421 Eh       0.59 kcal/mol
-----------------------------------------------------------------------
Total Enthalpy                    ...   -877.91013054 Eh


Note: Only C1 symmetry has been detected, increase convergence thresholds 
      if your molecule has a higher symmetry. Symmetry factor of 1.0 is   
      used for the rotational entropy correction. 
 

Note: Rotational entropy computed according to Herzberg 
Infrared and Raman Spectra, Chapter V,1, Van Nostrand Reinhold, 1945 
Point Group:  C1, Symmetry Number:   1  
Rotational constants in cm-1:     0.015926     0.011674     0.007445 

Vibrational entropy computed according to the QRRHO of S. Grimme
Chem.Eur.J. 2012 18 9955 using a reference frequency of 100.0 cm-1


-------
ENTROPY
-------

The entropy contributions are T*S = T*(S(el)+S(vib)+S(rot)+S(trans))
     S(el)   - electronic entropy
     S(vib)  - vibrational entropy
     S(rot)  - rotational entropy
     S(trans)- translational entropy
The entropies will be listed as multiplied by the temperature to get
units of energy

Electronic entropy                ...      0.00000000 Eh      0.00 kcal/mol
Vibrational entropy               ...      0.02559403 Eh     16.06 kcal/mol
Rotational entropy                ...      0.01587950 Eh      9.96 kcal/mol
Translational entropy             ...      0.02025841 Eh     12.71 kcal/mol
-----------------------------------------------------------------------
Final entropy term                ...      0.06173194 Eh     38.74 kcal/mol

In case the symmetry of your molecule has not been determined correctly
or in case you have a reason to use a different symmetry number we print 
out the resulting rotational entropy values for sn=1,12:

 non-linear molecules -----------------------------------
|  sn= 1 | S(rot)=       0.01587950 Eh      9.96 kcal/mol|
|  sn= 2 | S(rot)=       0.01522504 Eh      9.55 kcal/mol|
|  sn= 3 | S(rot)=       0.01484221 Eh      9.31 kcal/mol|
|  sn= 4 | S(rot)=       0.01457059 Eh      9.14 kcal/mol|
|  sn= 5 | S(rot)=       0.01435990 Eh      9.01 kcal/mol|
|  sn= 6 | S(rot)=       0.01418775 Eh      8.90 kcal/mol|
|  sn= 7 | S(rot)=       0.01404221 Eh      8.81 kcal/mol|
|  sn= 8 | S(rot)=       0.01391613 Eh      8.73 kcal/mol|
|  sn= 9 | S(rot)=       0.01380492 Eh      8.66 kcal/mol|
|  sn=10 | S(rot)=       0.01370544 Eh      8.60 kcal/mol|
|  sn=11 | S(rot)=       0.01361545 Eh      8.54 kcal/mol|
|  sn=12 | S(rot)=       0.01353330 Eh      8.49 kcal/mol|
 linear molecules ---------------------------------------
|  Dinfh | S(rot)=       0.00995243 Eh      6.25 kcal/mol|
|  Cinfv | S(rot)=       0.01060689 Eh      6.66 kcal/mol|
 --------------------------------------------------------


-------------------
GIBBS FREE ENERGY
-------------------

The Gibbs free energy is G = H - T*S

Total enthalpy                    ...   -877.91013054 Eh 
Total entropy correction          ...     -0.06173194 Eh    -38.74 kcal/mol
-----------------------------------------------------------------------
Final Gibbs free energy         ...   -877.97186248 Eh

For completeness - the Gibbs free energy minus the electronic energy
G-E(el)                           ...      0.22062750 Eh    138.45 kcal/mol



--------------------------------
SUGGESTED CITATIONS FOR THIS RUN
--------------------------------

Below you find a list of papers that are relevant to this ORCA run
We neither can nor want to force you to cite these papers, but we appreciate if you do
You receive ORCA, which is the product of decades of hard work by many enthusiastic individuals, for free
The only thing we kindly ask in return is that you cite our papers,
We deeply appreciate it, if you show your appreciation for ORCA by not just citing the generic ORCA reference.

Please note that relegating all ORCA citations to the supporting information does *not* help us.
SI sections are not indexed - citations you put there will not count into any citation statistics
But we need these citations in order to attract the funding resources that allow us to do what we are doing

Therefore, if you are a happy ORCA user, please consider citing a few of the papers listed below in the main body of your paper

In addition to the list printed below, the program has created the file 1globalminimum.bibtex that contains the list in bibtex format
You can import this file easily into all common literature databanks and citation aid programs


List of essential papers. We consider these as the minimum necessary citations

  1. Neese,F.
     Software update: the ORCA program system, version 5.0
     WIRES Comput. Molec. Sci., 2022 12(1)e1606
     doi.org/10.1002/wcms.1606

List of papers to cite with high priority. The work reported in these papers was absolutely
necessary for this run to complete.
Our perspective: the developers of density functionals and basis sets usually get cited in chemistry papers
Good! But without the algorithms to do something with them, the functionals or basis sets would not do anything.
Hence, in our opinion, the algorithm design and method developments papers are equally worthy of getting cited

  1. Neese,F.; Olbrich,G.
     Efficient use of the resolution of the identity approximation in time-dependent density functional calculations with hybrid density functionals
     Chem. Phys. Lett., 2002 362 170-178
     doi.org/10.1016/s0009-2614(02)01053-9
  2. Neese,F.
     An improvement of the resolution of the identity approximation for the formation of the Coulomb matrix
     J. Comp. Chem., 2003 24(14)1740-1747
     doi.org/10.1002/jcc.10318
  3. Neese,F.; Wennmohs,F.; Hansen,A.; Becker,U.
     Efficient, approximate and parallel Hartree-Fock and hybrid DFT calculations. A 'chain-of-spheres' algorithm for the Hartree-Fock exchange
     Chem. Phys., 2009 356(1-3)98-109
     doi.org/10.1016/j.chemphys.2008.10.036
  4. Petrenko,T.; Kossmann,S.; Neese,F.
     Efficient time-dependent density functional theory approximations for hybrid density functionals: Analytical gradients and parallelization
     J. Chem. Phys., 2011 134 054116
     doi.org/10.1063/1.3533441
  5. Bykov,D.; Petrenko,T.; Izsak,R.; Kossmann,S.; Becker,U.; Valeev,E.; Neese,F.
     Efficient implementation of the analytic second derivatives of Hartree-Fock and hybrid DFT energies: a detailed analysis of different approximations
     Molec. Phys., 2015 113 1961-1977
     doi.org/10.1080/00268976.2015.1025114
  6. Garcia-Rates,M.; Neese,F.
     Effect of the Solute Cavity on the Solvation Energy and its Derivatives within the Framework of the Gaussian Charge Scheme
     J. Comput. Chem., 2020 41 922-939
     doi.org/10.1002/jcc.26139
  7. Helmich-Paris,B.; de Souza,B.; Neese,F.; Izsák,R.
     An improved chain of spheres for exchange algorithm
     J. Chem. Phys., 2021 155 104109
     doi.org/doi: 10.1063/5.0058766.
  8. Neese,F.
     The SHARK Integral Generation and Digestion System
     J. Comp. Chem., 2022  1-16
     doi.org/10.1002/jcc.26942

List of suggested additional citations. These are papers that are important in the 'surrounding' of 
of this run, or papers that preceded the highly important papers. If you like your results we are grateful for a citation.

  1. Izsak,R.; Neese,F.
     An overlap fitted chain of spheres exchange method
     J. Chem. Phys., 2011 135 144105
     doi.org/10.1063/1.3646921
  2. Izsak,R.; Hansen,A.; Neese,F.
     The resolution of identity and chain of spheres approximations for the LPNO-CCSD singles Fock term
     Molec. Phys., 2012 110 2413-2417
     doi.org/10.1080/00268976.2012.687466
  3. Neese,F.
     The ORCA program system
     WIRES Comput. Molec. Sci., 2012 2(1)73-78
     doi.org/10.1002/wcms.81
  4. Izsak,R.; Neese,F.; Klopper,W.
     Robust fitting techniques in the chain of spheres approximation to the Fock exchange: The role of the complementary space
     J. Chem. Phys., 2013 139 
     doi.org/10.1063/1.4819264
  5. Neese,F.
     Software update: the ORCA program system, version 4.0
     WIRES Comput. Molec. Sci., 2018 8(1)1-6
     doi.org/10.1002/wcms.1327
  6. Neese,F.; Wennmohs,F.; Becker,U.; Riplinger,C.
     The ORCA quantum chemistry program package
     J. Chem. Phys., 2020 152 Art. No. L224108
     doi.org/10.1063/5.0004608

List of optional additional citations

  1. Neese,F.
     Approximate second-order SCF convergence for spin unrestricted wavefunctions
     Chem. Phys. Lett., 2000 325(1-3)93-98
     doi.org/10.1016/s0009-2614(00)00662-x

Timings for individual modules:

Sum of individual times          ...    80109.283 sec (=1335.155 min)
Startup calculation              ...      102.036 sec (=   1.701 min)   0.1 %
SCF iterations                   ...     2333.365 sec (=  38.889 min)   2.9 %
Property integrals               ...       10.317 sec (=   0.172 min)   0.0 %
Property calculations            ...        0.144 sec (=   0.002 min)   0.0 %
CIS module                       ...     6037.985 sec (= 100.633 min)   7.5 %
Geometry relaxation              ...        1.385 sec (=   0.023 min)   0.0 %
Numerical frequency calculation  ...    71624.051 sec (=1193.734 min)  89.4 %
                             ****ORCA TERMINATED NORMALLY****
TOTAL RUN TIME: 0 days 22 hours 9 minutes 45 seconds 133 msec
