
                                 *****************
                                 * O   R   C   A *
                                 *****************

                                            #,                                       
                                            ###                                      
                                            ####                                     
                                            #####                                    
                                            ######                                   
                                           ########,                                 
                                     ,,################,,,,,                         
                               ,,#################################,,                 
                          ,,##########################################,,             
                       ,#########################################, ''#####,          
                    ,#############################################,,   '####,        
                  ,##################################################,,,,####,       
                ,###########''''           ''''###############################       
              ,#####''   ,,,,##########,,,,          '''####'''          '####       
            ,##' ,,,,###########################,,,                        '##       
           ' ,,###''''                  '''############,,,                           
         ,,##''                                '''############,,,,        ,,,,,,###''
      ,#''                                            '''#######################'''  
     '                                                          ''''####''''         
             ,#######,   #######,   ,#######,      ##                                
            ,#'     '#,  ##    ##  ,#'     '#,    #''#        ######   ,####,        
            ##       ##  ##   ,#'  ##            #'  '#       #        #'  '#        
            ##       ##  #######   ##           ,######,      #####,   #    #        
            '#,     ,#'  ##    ##  '#,     ,#' ,#      #,         ##   #,  ,#        
             '#######'   ##     ##  '#######'  #'      '#     #####' # '####'        



                  #######################################################
                  #                        -***-                        #
                  #          Department of theory and spectroscopy      #
                  #    Directorship and core code : Frank Neese         #
                  #        Max Planck Institute fuer Kohlenforschung    #
                  #                Kaiser Wilhelm Platz 1               #
                  #                 D-45470 Muelheim/Ruhr               #
                  #                      Germany                        #
                  #                                                     #
                  #                  All rights reserved                #
                  #                        -***-                        #
                  #######################################################


                         Program Version 5.0.1 -  RELEASE  -


 With contributions from (in alphabetic order):
   Daniel Aravena         : Magnetic Suceptibility
   Michael Atanasov       : Ab Initio Ligand Field Theory (pilot matlab implementation)
   Alexander A. Auer      : GIAO ZORA, VPT2 properties, NMR spectrum
   Ute Becker             : Parallelization
   Giovanni Bistoni       : ED, misc. LED, open-shell LED, HFLD
   Martin Brehm           : Molecular dynamics
   Dmytro Bykov           : SCF Hessian
   Vijay G. Chilkuri      : MRCI spin determinant printing, contributions to CSF-ICE
   Dipayan Datta          : RHF DLPNO-CCSD density
   Achintya Kumar Dutta   : EOM-CC, STEOM-CC
   Dmitry Ganyushin       : Spin-Orbit,Spin-Spin,Magnetic field MRCI
   Miquel Garcia          : C-PCM and meta-GGA Hessian, CC/C-PCM, Gaussian charge scheme
   Yang Guo               : DLPNO-NEVPT2, F12-NEVPT2, CIM, IAO-localization
   Andreas Hansen         : Spin unrestricted coupled pair/coupled cluster methods
   Benjamin Helmich-Paris : MC-RPA, TRAH-SCF, COSX integrals
   Lee Huntington         : MR-EOM, pCC
   Robert Izsak           : Overlap fitted RIJCOSX, COSX-SCS-MP3, EOM
   Marcus Kettner         : VPT2
   Christian Kollmar      : KDIIS, OOCD, Brueckner-CCSD(T), CCSD density, CASPT2, CASPT2-K
   Simone Kossmann        : Meta GGA functionals, TD-DFT gradient, OOMP2, MP2 Hessian
   Martin Krupicka        : Initial AUTO-CI
   Lucas Lang             : DCDCAS
   Marvin Lechner         : AUTO-CI (C++ implementation), FIC-MRCC
   Dagmar Lenk            : GEPOL surface, SMD
   Dimitrios Liakos       : Extrapolation schemes; Compound Job, initial MDCI parallelization
   Dimitrios Manganas     : Further ROCIS development; embedding schemes
   Dimitrios Pantazis     : SARC Basis sets
   Anastasios Papadopoulos: AUTO-CI, single reference methods and gradients
   Taras Petrenko         : DFT Hessian,TD-DFT gradient, ASA, ECA, R-Raman, ABS, FL, XAS/XES, NRVS
   Peter Pinski           : DLPNO-MP2, DLPNO-MP2 Gradient
   Christoph Reimann      : Effective Core Potentials
   Marius Retegan         : Local ZFS, SOC
   Christoph Riplinger    : Optimizer, TS searches, QM/MM, DLPNO-CCSD(T), (RO)-DLPNO pert. Triples
   Tobias Risthaus        : Range-separated hybrids, TD-DFT gradient, RPA, STAB
   Michael Roemelt        : Original ROCIS implementation
   Masaaki Saitow         : Open-shell DLPNO-CCSD energy and density
   Barbara Sandhoefer     : DKH picture change effects
   Avijit Sen             : IP-ROCIS
   Kantharuban Sivalingam : CASSCF convergence, NEVPT2, FIC-MRCI
   Bernardo de Souza      : ESD, SOC TD-DFT
   Georgi Stoychev        : AutoAux, RI-MP2 NMR, DLPNO-MP2 response
   Willem Van den Heuvel  : Paramagnetic NMR
   Boris Wezisla          : Elementary symmetry handling
   Frank Wennmohs         : Technical directorship


 We gratefully acknowledge several colleagues who have allowed us to
 interface, adapt or use parts of their codes:
   Stefan Grimme, W. Hujo, H. Kruse, P. Pracht,  : VdW corrections, initial TS optimization,
                  C. Bannwarth, S. Ehlert          DFT functionals, gCP, sTDA/sTD-DF
   Ed Valeev, F. Pavosevic, A. Kumar             : LibInt (2-el integral package), F12 methods
   Garnet Chan, S. Sharma, J. Yang, R. Olivares  : DMRG
   Ulf Ekstrom                                   : XCFun DFT Library
   Mihaly Kallay                                 : mrcc  (arbitrary order and MRCC methods)
   Jiri Pittner, Ondrej Demel                    : Mk-CCSD
   Frank Weinhold                                : gennbo (NPA and NBO analysis)
   Christopher J. Cramer and Donald G. Truhlar   : smd solvation model
   Lars Goerigk                                  : TD-DFT with DH, B97 family of functionals
   V. Asgeirsson, H. Jonsson                     : NEB implementation
   FAccTs GmbH                                   : IRC, NEB, NEB-TS, DLPNO-Multilevel, CI-OPT
                                                   MM, QMMM, 2- and 3-layer-ONIOM, Crystal-QMMM,
                                                   LR-CPCM, SF, NACMEs, symmetry and pop. for TD-DFT,
                                                   nearIR, NL-DFT gradient (VV10), updates on ESD,
                                                   ML-optimized integration grids
   S Lehtola, MJT Oliveira, MAL Marques          : LibXC Library
   Liviu Ungur et al                             : ANISO software


 Your calculation uses the libint2 library for the computation of 2-el integrals
 For citations please refer to: http://libint.valeyev.net

 Your ORCA version has been built with support for libXC version: 5.1.0
 For citations please refer to: https://tddft.org/programs/libxc/

 This ORCA versions uses:
   CBLAS   interface :  Fast vector & matrix operations
   LAPACKE interface :  Fast linear algebra routines
   SCALAPACK package :  Parallel linear algebra routines
   Shared memory     :  Shared parallel matrices
   BLAS/LAPACK       :  OpenBLAS 0.3.15  USE64BITINT DYNAMIC_ARCH NO_AFFINITY Zen SINGLE_THREADED
        Core in use  :  Zen
   Copyright (c) 2011-2014, The OpenBLAS Project


================================================================================

----- Orbital basis set information -----
Your calculation utilizes the basis: def2-TZVP(-f)
   F. Weigend and R. Ahlrichs, Phys. Chem. Chem. Phys. 7, 3297 (2005).

----- AuxJ basis set information -----
Your calculation utilizes the auxiliary basis: def2/J
   F. Weigend, Phys. Chem. Chem. Phys. 8, 1057 (2006).

----- AuxC basis set information -----
Your calculation utilizes the auxiliary basis: def2-TZVP/C
  H-La, Hf-Rn : A. Hellweg, C. Hattig, S. Hofener and W. Klopper, Theor. Chem. Acc. 117, 587 (2007).
        Ce-Lu : J. Chmela and M. E. Harding, Mol. Phys. (2018).

================================================================================
                                        WARNINGS
                       Please study these warnings very carefully!
================================================================================


WARNING: Geometry Optimization
  ===> : Switching off AutoStart
         For restart on a previous wavefunction, please use MOREAD

INFO   : the flag for use of the SHARK integral package has been found!

================================================================================
                                       INPUT FILE
================================================================================
NAME = HBQ-DCP-GS.inp
|  1> ## avogadro generated ORCA input file 
|  2> # Basic Mode
|  3> # 
|  4> ! B3LYP/G OPT Freq Def2-TZVP(-f) Def2-TZVP/C Def2/J RIJCOSX TightSCF CPCM(Water) AllPop SOSCF
|  5> %maxcore 3000
|  6> 
|  7> %scf
|  8>        MaxIter 125
|  9>        CNVDIIS 1
| 10>        CNVSOSCF 1 
| 11> end
| 12> 
| 13> %geom
| 14>    MaxIter 999
| 15> end 
| 16> 
| 17> * xyz 1 1
| 18>    C       -2.88959       -1.04091        1.72226
| 19>    C       -2.16484       -2.23075        1.86439
| 20>    C       -0.89291       -2.32473        1.34897
| 21>    C       -2.30245        0.06749        1.16090
| 22>    C       -0.94908        0.05249        0.74974
| 23>    O       -3.11253        1.18142        0.96824
| 24>    C       -0.28618       -1.21214        0.73894
| 25>    C        0.93292       -1.37264        0.00710
| 26>    C        1.42029       -0.36819       -0.75681
| 27>    C       -0.23295        1.17308        0.21012
| 28>    C        0.84214        0.93687       -0.68203
| 29>    N       -0.52593        2.49379        0.52205
| 30>    C       -0.05974        3.49483       -0.26113
| 31>    C        0.79695        3.26568       -1.31669
| 32>    C        1.32310        1.99765       -1.46127
| 33>    C       -3.67861        1.30890       -0.29737
| 34>    O       -3.10975        0.90640       -1.29696
| 35>    N       -4.85429        1.95521       -0.26298
| 36>    C       -5.51185        2.27438       -1.52689
| 37>    C       -5.66074        2.16381        0.93689
| 38>    H       -5.12558        1.83645        1.81944
| 39>    H       -6.59115        1.59745        0.85067
| 40>    H       -5.90820        3.22189        1.03471
| 41>    H       -6.26333        1.52004       -1.77468
| 42>    H       -4.77667        2.32201       -2.32367
| 43>    H       -6.00500        3.24133       -1.42911
| 44>    H       -0.35745       -3.26505        1.36669
| 45>    H       -3.92687       -0.98510        2.02392
| 46>    H       -2.63334       -3.08957        2.32665
| 47>    H        1.40625       -2.34597        0.01055
| 48>    H        2.27254       -0.51273       -1.40760
| 49>    H       -0.34522        4.49514        0.02782
| 50>    H        1.11586        4.09322       -1.93253
| 51>    H        2.11236        1.80625       -2.17754
| 52>    P       -0.83197        3.03362        2.23652
| 53>    O       -1.34887        1.94754        3.06478
| 54>    O       -1.63562        4.35240        2.04149
| 55>    O        0.57257        3.62730        2.60091
| 56>    C       -3.10898        4.44482        2.03067
| 57>    C        1.65292        2.79926        3.17177
| 58>    C       -3.48565        5.82785        2.49668
| 59>    H       -3.49963        3.67068        2.68642
| 60>    H       -3.42558        4.25782        1.00707
| 61>    H       -3.14777        6.00289        3.51834
| 62>    H       -4.57313        5.91967        2.47121
| 63>    H       -3.06135        6.59065        1.84312
| 64>    C        2.73595        3.73202        3.65170
| 65>    H        2.00988        2.13398        2.38652
| 66>    H        1.22908        2.21220        3.98400
| 67>    H        3.13500        4.32580        2.82885
| 68>    H        3.54819        3.13730        4.07360
| 69>    H        2.36049        4.40126        4.42641
| 70> 
| 71> 
| 72> *
| 73> 
| 74> 
| 75>                          ****END OF INPUT****
================================================================================

                       *****************************
                       * Geometry Optimization Run *
                       *****************************

Geometry optimization settings:
Update method            Update   .... BFGS
Choice of coordinates    CoordSys .... Z-matrix Internals
Initial Hessian          InHess   .... Almoef's Model

Convergence Tolerances:
Energy Change            TolE     ....  5.0000e-06 Eh
Max. Gradient            TolMAXG  ....  3.0000e-04 Eh/bohr
RMS Gradient             TolRMSG  ....  1.0000e-04 Eh/bohr
Max. Displacement        TolMAXD  ....  4.0000e-03 bohr
RMS Displacement         TolRMSD  ....  2.0000e-03 bohr
Strict Convergence                ....  False
------------------------------------------------------------------------------
                        ORCA OPTIMIZATION COORDINATE SETUP
------------------------------------------------------------------------------

The optimization will be done in new redundant internal coordinates
Making redundant internal coordinates   ...  (new redundants) done
Evaluating the initial hessian          ...  (Almloef) done
Evaluating the coordinates              ...  done
Calculating the B-matrix                .... done
Calculating the G-matrix                .... done
Diagonalizing the G-matrix              .... done
Small eigenvalue found = 1.729e-03
Small eigenvalue found = 3.652e-03
Small eigenvalue found = 5.785e-03
Small eigenvalue found = 6.853e-03
Small eigenvalue found = 8.282e-03
Small eigenvalue found = 1.051e-02
Small eigenvalue found = 1.821e-02
Small eigenvalue found = 2.096e-02
Small eigenvalue found = 2.573e-02
The first mode is                       ....  118
The number of degrees of freedom        ....  150

    -----------------------------------------------------------------
                    Redundant Internal Coordinates


    -----------------------------------------------------------------
         Definition                    Initial Value    Approx d2E/dq
    -----------------------------------------------------------------
      1. B(C   1,C   0)                  1.4004         0.601327   
      2. B(C   2,C   1)                  1.3756         0.658720   
      3. B(C   3,C   0)                  1.3742         0.662150   
      4. B(C   4,C   3)                  1.4145         0.570961   
      5. B(O   5,C   3)                  1.3908         0.558056   
      6. B(C   6,C   4)                  1.4279         0.543629   
      7. B(C   6,C   2)                  1.4065         0.588148   
      8. B(C   7,C   6)                  1.4309         0.537577   
      9. B(C   8,C   7)                  1.3528         0.716348   
     10. B(C   9,C   4)                  1.4352         0.529237   
     11. B(C  10,C   9)                  1.4169         0.566051   
     12. B(C  10,C   8)                  1.4293         0.540709   
     13. B(N  11,C   9)                  1.3883         0.563076   
     14. B(C  12,N  11)                  1.3538         0.639181   
     15. B(C  13,C  12)                  1.3786         0.651434   
     16. B(C  14,C  13)                  1.3804         0.647110   
     17. B(C  14,C  10)                  1.4014         0.599273   
     18. B(C  15,O   5)                  1.3923         0.554913   
     19. B(O  16,C  15)                  1.2185         1.050661   
     20. B(N  17,C  15)                  1.3421         0.667363   
     21. B(C  18,N  17)                  1.4600         0.432641   
     22. B(C  19,N  17)                  1.4607         0.431641   
     23. B(H  20,C  19)                  1.0828         0.369752   
     24. B(H  21,C  19)                  1.0926         0.356626   
     25. B(H  22,C  19)                  1.0910         0.358745   
     26. B(H  23,C  18)                  1.0932         0.355853   
     27. B(H  24,C  18)                  1.0852         0.366532   
     28. B(H  25,C  18)                  1.0898         0.360312   
     29. B(H  26,C   2)                  1.0822         0.370520   
     30. B(H  27,C   0)                  1.0817         0.371256   
     31. B(H  28,C   1)                  1.0820         0.370825   
     32. B(H  29,C   7)                  1.0823         0.370399   
     33. B(H  30,C   8)                  1.0820         0.370824   
     34. B(H  31,C  12)                  1.0796         0.374076   
     35. B(H  32,C  13)                  1.0797         0.373966   
     36. B(H  33,C  14)                  1.0829         0.369656   
     37. B(P  34,N  11)                  1.8233         0.382860   
     38. B(O  35,P  34)                  1.4604         1.452278   
     39. B(O  36,P  34)                  1.5566         1.019848   
     40. B(O  37,P  34)                  1.5678         0.978848   
     41. B(C  38,O  36)                  1.4763         0.407565   
     42. B(C  39,O  37)                  1.4760         0.407951   
     43. B(C  40,C  38)                  1.5073         0.406131   
     44. B(H  41,H  20)                  2.6000         0.000269   
     45. B(H  41,C  38)                  1.0872         0.363882   
     46. B(H  42,C  38)                  1.0876         0.363235   
     47. B(H  43,C  40)                  1.0902         0.359802   
     48. B(H  44,C  40)                  1.0916         0.357928   
     49. B(H  45,C  40)                  1.0904         0.359533   
     50. B(C  46,C  39)                  1.5078         0.405384   
     51. B(H  47,C  39)                  1.0893         0.360990   
     52. B(H  48,C  39)                  1.0881         0.362600   
     53. B(H  49,C  46)                  1.0904         0.359616   
     54. B(H  50,C  46)                  1.0915         0.358089   
     55. B(H  51,C  46)                  1.0904         0.359537   
     56. A(C   1,C   0,C   3)          120.3737         0.436825   
     57. A(C   1,C   0,H  27)          120.7842         0.352905   
     58. A(C   3,C   0,H  27)          118.8177         0.358723   
     59. A(C   0,C   1,C   2)          119.9032         0.436417   
     60. A(C   0,C   1,H  28)          119.5808         0.352835   
     61. A(C   2,C   1,H  28)          120.4113         0.358336   
     62. A(C   1,C   2,H  26)          120.7110         0.358285   
     63. A(C   6,C   2,H  26)          118.7500         0.351466   
     64. A(C   1,C   2,C   6)          120.4873         0.434679   
     65. A(C   4,C   3,O   5)          121.7033         0.416995   
     66. A(C   0,C   3,O   5)          116.9849         0.428182   
     67. A(C   0,C   3,C   4)          121.2635         0.432770   
     68. A(C   6,C   4,C   9)          117.1957         0.412163   
     69. A(C   3,C   4,C   9)          125.3393         0.415771   
     70. A(C   3,C   4,C   6)          117.1147         0.417762   
     71. A(C   3,O   5,C  15)          115.8545         0.412204   
     72. A(C   4,C   6,C   7)          119.9165         0.413309   
     73. A(C   2,C   6,C   7)          120.0418         0.419138   
     74. A(C   2,C   6,C   4)          119.8058         0.419976   
     75. A(C   6,C   7,H  29)          118.1530         0.346160   
     76. A(C   6,C   7,C   8)          120.8284         0.434207   
     77. A(C   8,C   7,H  29)          120.7957         0.363426   
     78. A(C  10,C   8,H  30)          118.1662         0.346566   
     79. A(C   7,C   8,H  30)          121.6162         0.363497   
     80. A(C   7,C   8,C  10)          120.1772         0.434661   
     81. A(C   4,C   9,C  10)          119.0251         0.415133   
     82. A(C  10,C   9,N  11)          117.3996         0.417019   
     83. A(C   4,C   9,N  11)          123.5729         0.412064   
     84. A(C   9,C  10,C  14)          118.9701         0.424437   
     85. A(C   8,C  10,C  14)          121.5493         0.420978   
     86. A(C   8,C  10,C   9)          119.4768         0.416720   
     87. A(C   9,N  11,P  34)          121.8937         0.412540   
     88. A(C   9,N  11,C  12)          120.0511         0.423391   
     89. A(C  12,N  11,P  34)          112.5100         0.421958   
     90. A(N  11,C  12,H  31)          116.0538         0.354830   
     91. A(N  11,C  12,C  13)          122.2771         0.437474   
     92. A(C  13,C  12,H  31)          121.5494         0.358190   
     93. A(C  12,C  13,H  32)          119.5285         0.358172   
     94. A(C  12,C  13,C  14)          118.0158         0.441347   
     95. A(C  14,C  13,H  32)          122.1212         0.357766   
     96. A(C  10,C  14,H  33)          118.9579         0.352443   
     97. A(C  10,C  14,C  13)          120.4158         0.434754   
     98. A(C  13,C  14,H  33)          120.6263         0.357062   
     99. A(O  16,C  15,N  17)          126.0907         0.477874   
    100. A(O   5,C  15,N  17)          112.1466         0.425558   
    101. A(O   5,C  15,O  16)          121.7112         0.461967   
    102. A(C  18,N  17,C  19)          115.5456         0.377245   
    103. A(C  15,N  17,C  19)          124.9937         0.406955   
    104. A(C  15,N  17,C  18)          118.5307         0.407122   
    105. A(N  17,C  18,H  25)          108.6676         0.330299   
    106. A(H  23,C  18,H  24)          109.2418         0.291106   
    107. A(H  23,C  18,H  25)          108.7535         0.290325   
    108. A(N  17,C  18,H  24)          109.8821         0.331235   
    109. A(N  17,C  18,H  23)          110.7907         0.329620   
    110. A(H  24,C  18,H  25)          109.4806         0.291677   
    111. A(H  21,C  19,H  22)          108.4590         0.290225   
    112. A(H  20,C  19,H  22)          109.4036         0.291878   
    113. A(N  17,C  19,H  22)          109.7170         0.329935   
    114. A(H  20,C  19,H  21)          109.1755         0.291606   
    115. A(N  17,C  19,H  21)          109.3470         0.329612   
    116. A(N  17,C  19,H  20)          110.7007         0.331588   
    117. A(N  11,P  34,O  36)          102.6901         0.491132   
    118. A(N  11,P  34,O  35)          111.8708         0.524627   
    119. A(O  36,P  34,O  37)           99.8358         0.586326   
    120. A(O  35,P  34,O  37)          117.8323         0.627750   
    121. A(N  11,P  34,O  37)          100.3867         0.487415   
    122. A(O  35,P  34,O  36)          121.2237         0.632777   
    123. A(P  34,O  36,C  38)          124.6950         0.464372   
    124. A(P  34,O  37,C  39)          122.2199         0.460982   
    125. A(H  41,C  38,H  42)          109.9157         0.291715   
    126. A(C  40,C  38,H  42)          112.0856         0.329282   
    127. A(O  36,C  38,H  42)          106.6572         0.327496   
    128. A(C  40,C  38,H  41)          112.1543         0.329379   
    129. A(O  36,C  38,H  41)          108.0363         0.327592   
    130. A(O  36,C  38,C  40)          107.7332         0.371808   
    131. A(C  46,C  39,H  48)          112.0836         0.329087   
    132. A(O  37,C  39,H  48)          107.8339         0.327452   
    133. A(C  46,C  39,H  47)          111.8324         0.328846   
    134. A(O  37,C  39,H  47)          107.6776         0.327212   
    135. A(O  37,C  39,C  46)          107.5659         0.371751   
    136. A(H  47,C  39,H  48)          109.6473         0.291269   
    137. A(H  44,C  40,H  45)          108.3490         0.290491   
    138. A(H  43,C  40,H  45)          109.1935         0.290730   
    139. A(C  38,C  40,H  45)          111.0594         0.328726   
    140. A(H  43,C  40,H  44)          108.4873         0.290526   
    141. A(C  38,C  40,H  44)          108.5974         0.328483   
    142. A(C  38,C  40,H  43)          111.0759         0.328767   
    143. A(H  50,C  46,H  51)          108.4218         0.290512   
    144. A(H  49,C  46,H  51)          109.1442         0.290707   
    145. A(C  39,C  46,H  51)          111.0083         0.328627   
    146. A(H  49,C  46,H  50)          108.4252         0.290522   
    147. A(C  39,C  46,H  50)          108.6920         0.328408   
    148. A(C  39,C  46,H  49)          111.0735         0.328639   
    149. D(H  28,C   1,C   0,H  27)     -3.0694         0.024933   
    150. D(H  28,C   1,C   0,C   3)    178.7500         0.024933   
    151. D(C   2,C   1,C   0,C   3)     -4.9551         0.024933   
    152. D(C   2,C   1,C   0,H  27)    173.2254         0.024933   
    153. D(H  26,C   2,C   1,H  28)      2.1779         0.030270   
    154. D(H  26,C   2,C   1,C   0)   -174.0858         0.030270   
    155. D(C   6,C   2,C   1,H  28)    179.5285         0.030270   
    156. D(C   6,C   2,C   1,C   0)      3.2648         0.030270   
    157. D(C   4,C   3,C   0,H  27)    179.9038         0.030609   
    158. D(O   5,C   3,C   0,H  27)     -2.5824         0.030609   
    159. D(C   4,C   3,C   0,C   1)     -1.8802         0.030609   
    160. D(O   5,C   3,C   0,C   1)    175.6336         0.030609   
    161. D(C   9,C   4,C   3,C   0)   -177.0830         0.022366   
    162. D(C   6,C   4,C   3,C   0)      9.9280         0.022366   
    163. D(C   6,C   4,C   3,O   5)   -167.4678         0.022366   
    164. D(C   9,C   4,C   3,O   5)      5.5212         0.022366   
    165. D(C  15,O   5,C   3,C   4)     82.2367         0.022556   
    166. D(C  15,O   5,C   3,C   0)    -95.2653         0.022556   
    167. D(C   7,C   6,C   4,C   9)    -10.6013         0.020202   
    168. D(C   7,C   6,C   4,C   3)    162.9712         0.020202   
    169. D(C   2,C   6,C   4,C   9)    174.9748         0.020202   
    170. D(C   4,C   6,C   2,H  26)   -177.5009         0.023798   
    171. D(C   7,C   6,C   2,H  26)      8.0822         0.023798   
    172. D(C   7,C   6,C   2,C   1)   -169.3197         0.023798   
    173. D(C   2,C   6,C   4,C   3)    -11.4527         0.020202   
    174. D(C   4,C   6,C   2,C   1)      5.0971         0.023798   
    175. D(H  29,C   7,C   6,C   4)   -179.4175         0.019741   
    176. D(H  29,C   7,C   6,C   2)     -5.0069         0.019741   
    177. D(C   8,C   7,C   6,C   4)     -4.8005         0.019741   
    178. D(C   8,C   7,C   6,C   2)    169.6101         0.019741   
    179. D(C  10,C   8,C   7,C   6)      9.8521         0.036286   
    180. D(H  30,C   8,C   7,H  29)      1.9734         0.036286   
    181. D(H  30,C   8,C   7,C   6)   -172.5009         0.036286   
    182. D(C  10,C   8,C   7,H  29)   -175.6736         0.036286   
    183. D(N  11,C   9,C   4,C   6)   -158.4934         0.019117   
    184. D(N  11,C   9,C   4,C   3)     28.5228         0.019117   
    185. D(C  10,C   9,C   4,C   6)     20.9296         0.019117   
    186. D(C  10,C   9,C   4,C   3)   -152.0542         0.019117   
    187. D(C  14,C  10,C   9,N  11)    -16.2657         0.021967   
    188. D(C   8,C  10,C   9,N  11)    163.0331         0.021967   
    189. D(C   8,C  10,C   9,C   4)    -16.4254         0.021967   
    190. D(C  14,C  10,C   8,H  30)      2.3503         0.019979   
    191. D(C  14,C  10,C   8,C   7)   -179.9225         0.019979   
    192. D(C   9,C  10,C   8,H  30)   -176.9297         0.019979   
    193. D(C  14,C  10,C   9,C   4)    164.2758         0.021967   
    194. D(C   9,C  10,C   8,C   7)      0.7974         0.019979   
    195. D(P  34,N  11,C   9,C  10)   -134.2142         0.025337   
    196. D(P  34,N  11,C   9,C   4)     45.2175         0.025337   
    197. D(C  12,N  11,C   9,C  10)     17.5450         0.025337   
    198. D(C  12,N  11,C   9,C   4)   -163.0233         0.025337   
    199. D(H  31,C  12,N  11,P  34)    -27.1469         0.033246   
    200. D(H  31,C  12,N  11,C   9)    178.6304         0.033246   
    201. D(C  13,C  12,N  11,P  34)    148.9312         0.033246   
    202. D(C  13,C  12,N  11,C   9)     -5.2915         0.033246   
    203. D(H  32,C  13,C  12,H  31)     -6.1335         0.029557   
    204. D(H  32,C  13,C  12,N  11)    178.0014         0.029557   
    205. D(C  14,C  13,C  12,H  31)    167.3677         0.029557   
    206. D(C  14,C  13,C  12,N  11)     -8.4974         0.029557   
    207. D(C  10,C  14,C  13,C  12)      9.4403         0.029138   
    208. D(H  33,C  14,C  10,C   9)   -177.0662         0.024754   
    209. D(H  33,C  14,C  10,C   8)      3.6502         0.024754   
    210. D(C  13,C  14,C  10,C   9)      2.9029         0.024754   
    211. D(C  13,C  14,C  10,C   8)   -176.3808         0.024754   
    212. D(H  33,C  14,C  13,H  32)      2.7313         0.029138   
    213. D(H  33,C  14,C  13,C  12)   -170.5912         0.029138   
    214. D(C  10,C  14,C  13,H  32)   -177.2372         0.029138   
    215. D(N  17,C  15,O   5,C   3)    150.8641         0.022290   
    216. D(O  16,C  15,O   5,C   3)    -31.5948         0.022290   
    217. D(C  19,N  17,C  15,O  16)    165.5188         0.036519   
    218. D(C  19,N  17,C  15,O   5)    -17.0700         0.036519   
    219. D(C  18,N  17,C  15,O  16)     -2.9264         0.036519   
    220. D(C  18,N  17,C  15,O   5)    174.4849         0.036519   
    221. D(H  25,C  18,N  17,C  19)     46.5116         0.015959   
    222. D(H  25,C  18,N  17,C  15)   -143.9673         0.015959   
    223. D(H  24,C  18,N  17,C  19)    166.2803         0.015959   
    224. D(H  24,C  18,N  17,C  15)    -24.1986         0.015959   
    225. D(H  23,C  18,N  17,C  19)    -72.9119         0.015959   
    226. D(H  23,C  18,N  17,C  15)     96.6092         0.015959   
    227. D(H  22,C  19,N  17,C  18)    -63.2700         0.015885   
    228. D(H  22,C  19,N  17,C  15)    127.9776         0.015885   
    229. D(H  21,C  19,N  17,C  18)     55.5665         0.015885   
    230. D(H  21,C  19,N  17,C  15)   -113.1859         0.015885   
    231. D(H  20,C  19,N  17,C  18)    175.8865         0.015885   
    232. D(H  20,C  19,N  17,C  15)      7.1341         0.015885   
    233. D(O  37,P  34,N  11,C  12)    -54.8558         0.003754   
    234. D(O  37,P  34,N  11,C   9)     98.8263         0.003754   
    235. D(O  36,P  34,N  11,C  12)     47.8118         0.003754   
    236. D(O  36,P  34,N  11,C   9)   -158.5061         0.003754   
    237. D(O  35,P  34,N  11,C  12)    179.3376         0.003754   
    238. D(O  35,P  34,N  11,C   9)    -26.9803         0.003754   
    239. D(C  38,O  36,P  34,O  37)   -163.0344         0.017842   
    240. D(C  38,O  36,P  34,O  35)    -31.7948         0.017842   
    241. D(C  38,O  36,P  34,N  11)     93.8685         0.017842   
    242. D(C  39,O  37,P  34,O  36)    166.4961         0.016454   
    243. D(C  39,O  37,P  34,O  35)     33.1446         0.016454   
    244. D(C  39,O  37,P  34,N  11)    -88.5259         0.016454   
    245. D(H  42,C  38,O  36,P  34)    -87.0436         0.013107   
    246. D(H  41,C  38,O  36,P  34)     31.0788         0.013107   
    247. D(C  40,C  38,O  36,P  34)    152.4446         0.013107   
    248. D(H  48,C  39,O  37,P  34)    -47.5999         0.013131   
    249. D(H  47,C  39,O  37,P  34)     70.6450         0.013131   
    250. D(C  46,C  39,O  37,P  34)   -168.6707         0.013131   
    251. D(H  45,C  40,C  38,H  41)    178.3769         0.013073   
    252. D(H  45,C  40,C  38,O  36)     59.6146         0.013073   
    253. D(H  44,C  40,C  38,H  42)     61.6243         0.013073   
    254. D(H  44,C  40,C  38,H  41)    -62.5787         0.013073   
    255. D(H  44,C  40,C  38,O  36)    178.6589         0.013073   
    256. D(H  43,C  40,C  38,H  42)   -179.1516         0.013073   
    257. D(H  43,C  40,C  38,H  41)     56.6454         0.013073   
    258. D(H  45,C  40,C  38,H  42)    -57.4201         0.013073   
    259. D(H  43,C  40,C  38,O  36)    -62.1170         0.013073   
    260. D(H  51,C  46,C  39,H  48)    -57.2388         0.013027   
    261. D(H  51,C  46,C  39,O  37)     61.1276         0.013027   
    262. D(H  50,C  46,C  39,H  48)     61.9237         0.013027   
    263. D(H  50,C  46,C  39,H  47)    -61.6790         0.013027   
    264. D(H  50,C  46,C  39,O  37)   -179.7099         0.013027   
    265. D(H  49,C  46,C  39,H  48)   -178.8705         0.013027   
    266. D(H  51,C  46,C  39,H  47)    179.1585         0.013027   
    267. D(H  49,C  46,C  39,H  47)     57.5268         0.013027   
    268. D(H  49,C  46,C  39,O  37)    -60.5040         0.013027   
    -----------------------------------------------------------------

Number of atoms                         .... 52
Number of degrees of freedom            .... 268

         *************************************************************
         *                GEOMETRY OPTIMIZATION CYCLE   1            *
         *************************************************************
---------------------------------
CARTESIAN COORDINATES (ANGSTROEM)
---------------------------------
  C     -2.889590   -1.040910    1.722260
  C     -2.164840   -2.230750    1.864390
  C     -0.892910   -2.324730    1.348970
  C     -2.302450    0.067490    1.160900
  C     -0.949080    0.052490    0.749740
  O     -3.112530    1.181420    0.968240
  C     -0.286180   -1.212140    0.738940
  C      0.932920   -1.372640    0.007100
  C      1.420290   -0.368190   -0.756810
  C     -0.232950    1.173080    0.210120
  C      0.842140    0.936870   -0.682030
  N     -0.525930    2.493790    0.522050
  C     -0.059740    3.494830   -0.261130
  C      0.796950    3.265680   -1.316690
  C      1.323100    1.997650   -1.461270
  C     -3.678610    1.308900   -0.297370
  O     -3.109750    0.906400   -1.296960
  N     -4.854290    1.955210   -0.262980
  C     -5.511850    2.274380   -1.526890
  C     -5.660740    2.163810    0.936890
  H     -5.125580    1.836450    1.819440
  H     -6.591150    1.597450    0.850670
  H     -5.908200    3.221890    1.034710
  H     -6.263330    1.520040   -1.774680
  H     -4.776670    2.322010   -2.323670
  H     -6.005000    3.241330   -1.429110
  H     -0.357450   -3.265050    1.366690
  H     -3.926870   -0.985100    2.023920
  H     -2.633340   -3.089570    2.326650
  H      1.406250   -2.345970    0.010550
  H      2.272540   -0.512730   -1.407600
  H     -0.345220    4.495140    0.027820
  H      1.115860    4.093220   -1.932530
  H      2.112360    1.806250   -2.177540
  P     -0.831970    3.033620    2.236520
  O     -1.348870    1.947540    3.064780
  O     -1.635620    4.352400    2.041490
  O      0.572570    3.627300    2.600910
  C     -3.108980    4.444820    2.030670
  C      1.652920    2.799260    3.171770
  C     -3.485650    5.827850    2.496680
  H     -3.499630    3.670680    2.686420
  H     -3.425580    4.257820    1.007070
  H     -3.147770    6.002890    3.518340
  H     -4.573130    5.919670    2.471210
  H     -3.061350    6.590650    1.843120
  C      2.735950    3.732020    3.651700
  H      2.009880    2.133980    2.386520
  H      1.229080    2.212200    3.984000
  H      3.135000    4.325800    2.828850
  H      3.548190    3.137300    4.073600
  H      2.360490    4.401260    4.426410

----------------------------
CARTESIAN COORDINATES (A.U.)
----------------------------
  NO LB      ZA    FRAG     MASS         X           Y           Z
   0 C     6.0000    0    12.011   -5.460534   -1.967035    3.254600
   1 C     6.0000    0    12.011   -4.090955   -4.215507    3.523187
   2 C     6.0000    0    12.011   -1.687355   -4.393103    2.549184
   3 C     6.0000    0    12.011   -4.351000    0.127538    2.193783
   4 C     6.0000    0    12.011   -1.793501    0.099192    1.416803
   5 O     8.0000    0    15.999   -5.881829    2.232560    1.829708
   6 C     6.0000    0    12.011   -0.540802   -2.290613    1.396394
   7 C     6.0000    0    12.011    1.762963   -2.593914    0.013417
   8 C     6.0000    0    12.011    2.683959   -0.695778   -1.430164
   9 C     6.0000    0    12.011   -0.440212    2.216800    0.397069
  10 C     6.0000    0    12.011    1.591414    1.770428   -1.288850
  11 N     7.0000    0    14.007   -0.993864    4.712580    0.986532
  12 C     6.0000    0    12.011   -0.112892    6.604272   -0.493464
  13 C     6.0000    0    12.011    1.506017    6.171241   -2.488184
  14 C     6.0000    0    12.011    2.500297    3.775011   -2.761400
  15 C     6.0000    0    12.011   -6.951565    2.473463   -0.561948
  16 O     8.0000    0    15.999   -5.876576    1.712848   -2.450899
  17 N     7.0000    0    14.007   -9.173279    3.694811   -0.496960
  18 C     6.0000    0    12.011  -10.415887    4.297955   -2.885404
  19 C     6.0000    0    12.011  -10.697248    4.089008    1.770466
  20 H     1.0000    0     1.008   -9.685942    3.470388    3.438243
  21 H     1.0000    0     1.008  -12.455468    3.018743    1.607533
  22 H     1.0000    0     1.008  -11.164880    6.088490    1.955319
  23 H     1.0000    0     1.008  -11.835978    2.872459   -3.353659
  24 H     1.0000    0     1.008   -9.026598    4.387963   -4.391100
  25 H     1.0000    0     1.008  -11.347805    6.125226   -2.700627
  26 H     1.0000    0     1.008   -0.675483   -6.170050    2.582670
  27 H     1.0000    0     1.008   -7.420709   -1.861569    3.824655
  28 H     1.0000    0     1.008   -4.976291   -5.838441    4.396731
  29 H     1.0000    0     1.008    2.657427   -4.433241    0.019937
  30 H     1.0000    0     1.008    4.294478   -0.968919   -2.659979
  31 H     1.0000    0     1.008   -0.652371    8.494584    0.052572
  32 H     1.0000    0     1.008    2.108670    7.735065   -3.651952
  33 H     1.0000    0     1.008    3.991782    3.413318   -4.114954
  34 P    15.0000    0    30.974   -1.572195    5.732711    4.226410
  35 O     8.0000    0    15.999   -2.548995    3.680317    5.791595
  36 O     8.0000    0    15.999   -3.090874    8.224844    3.857857
  37 O     8.0000    0    15.999    1.082000    6.854604    4.915008
  38 C     6.0000    0    12.011   -5.875121    8.399493    3.837410
  39 C     6.0000    0    12.011    3.123566    5.289835    5.993777
  40 C     6.0000    0    12.011   -6.586924   11.013040    4.718041
  41 H     1.0000    0     1.008   -6.613342    6.936580    5.076598
  42 H     1.0000    0     1.008   -6.473408    8.046114    1.903086
  43 H     1.0000    0     1.008   -5.948423   11.343818    6.648699
  44 H     1.0000    0     1.008   -8.641963   11.186555    4.669910
  45 H     1.0000    0     1.008   -5.785113   12.454524    3.482992
  46 C     6.0000    0    12.011    5.170196    7.052496    6.900713
  47 H     1.0000    0     1.008    3.798123    4.032638    4.509869
  48 H     1.0000    0     1.008    2.322625    4.180452    7.528669
  49 H     1.0000    0     1.008    5.924291    8.174577    5.345752
  50 H     1.0000    0     1.008    6.705107    5.928638    7.697988
  51 H     1.0000    0     1.008    4.460680    8.317176    8.364703

--------------------------------
INTERNAL COORDINATES (ANGSTROEM)
--------------------------------
 C      0   0   0     0.000000000000     0.00000000     0.00000000
 C      1   0   0     1.400422338082     0.00000000     0.00000000
 C      2   1   0     1.375607480970   119.90320204     0.00000000
 C      1   2   3     1.374193941625   120.37367997   355.04487252
 C      4   1   2     1.414527448479   121.26347486   358.11979093
 O      4   1   2     1.390750706237   116.98493504   175.63355446
 C      3   2   1     1.406454550243   120.48725466     3.26483337
 C      7   3   2     1.430927966601   120.04177905   190.68025744
 C      8   7   3     1.352777811579   120.82836168   169.61007024
 C      5   4   1     1.435184263222   125.33933014   182.91697300
 C     10   5   4     1.416878715593   119.02512999   207.94576999
 N     10   5   4     1.388312828364   123.57289505    28.52279007
 C     12  10   5     1.353803940791   120.05105971   196.97674543
 C     13  12  10     1.378634974241   122.27710308   354.70852423
 C     14  13  12     1.380448216993   118.01575402   351.50257909
 C      6   4   1     1.392288184572   115.85447521   264.73467848
 O     16   6   4     1.218518821233   121.71119639   328.40518466
 N     16   6   4     1.342059145716   112.14662936   150.86414046
 C     18  16   6     1.460042167405   118.53068613   174.48488934
 C     18  16   6     1.460672303907   124.99372387   342.93001075
 H     20  18  16     1.082799749584   110.70065299     7.13406788
 H     20  18  16     1.092639147249   109.34704928   246.81409113
 H     20  18  16     1.091026347253   109.71699873   127.97759962
 H     19  18  16     1.093229577948   110.79066042    96.60923264
 H     19  18  16     1.085180453980   109.88211072   335.80141911
 H     19  18  16     1.089839508093   108.66764917   216.03271943
 H      3   2   1     1.082235238938   120.71095124   185.91418977
 H      1   2   3     1.081694647347   120.78420003   173.22540257
 H      2   1   3     1.082011252252   119.58075374   183.70515992
 H      8   7   3     1.082323648591   118.15295328   354.99313636
 H      9   8   7     1.082011782838   121.61624379   187.49910925
 H     13  12  10     1.079634673860   116.05380095   178.63042794
 H     14  13  12     1.079715214906   119.52846234   178.00135819
 H     15  14  13     1.082870269469   120.62626355   189.40884049
 P     12  10   5     1.823316837908   121.89368416    45.21752596
 O     35  12  10     1.460400631334   111.87075031   333.01974673
 O     35  12  10     1.556621569875   102.69011539   201.49391313
 O     35  12  10     1.567791002047   100.38671788    98.82634481
 C     37  35  12     1.476295437370   124.69497577    93.86845081
 C     38  35  12     1.476037771773   122.21991921   271.47406685
 C     39  37  35     1.507254985031   107.73318444   152.44461840
 H     39  37  35     1.087156025877   108.03625849    31.07883361
 H     39  37  35     1.087640344967   106.65716156   272.95636222
 H     41  39  37     1.090225229758   111.07594354   297.88304213
 H     41  39  37     1.091646638661   108.59739968   178.65892157
 H     41  39  37     1.090428816384   111.05944144    59.61457267
 C     40  38  35     1.507755949549   107.56586574   191.32928064
 H     40  38  35     1.089327995830   107.67759128    70.64498909
 H     40  38  35     1.088116428559   107.83393811   312.40010151
 H     47  40  38     1.090365862177   111.07348638   299.49595287
 H     47  40  38     1.091524303898   108.69199401   180.29010380
 H     47  40  38     1.090425592739   111.00825859    61.12763709

---------------------------
INTERNAL COORDINATES (A.U.)
---------------------------
 C      0   0   0     0.000000000000     0.00000000     0.00000000
 C      1   0   0     2.646414690801     0.00000000     0.00000000
 C      2   1   0     2.599521406806   119.90320204     0.00000000
 C      1   2   3     2.596850204566   120.37367997   355.04487252
 C      4   1   2     2.673069486539   121.26347486   358.11979093
 O      4   1   2     2.628137955346   116.98493504   175.63355446
 C      3   2   1     2.657813919767   120.48725466     3.26483337
 C      7   3   2     2.704061974244   120.04177905   190.68025744
 C      8   7   3     2.556379583929   120.82836168   169.61007024
 C      5   4   1     2.712105209203   125.33933014   182.91697300
 C     10   5   4     2.677512737453   119.02512999   207.94576999
 N     10   5   4     2.623531033818   123.57289505    28.52279007
 C     12  10   5     2.558318687117   120.05105971   196.97674543
 C     13  12  10     2.605242539961   122.27710308   354.70852423
 C     14  13  12     2.608669072177   118.01575402   351.50257909
 C      6   4   1     2.631043368336   115.85447521   264.73467848
 O     16   6   4     2.302666861160   121.71119639   328.40518466
 N     16   6   4     2.536124240928   112.14662936   150.86414046
 C     18  16   6     2.759079840372   118.53068613   174.48488934
 C     18  16   6     2.760270625787   124.99372387   342.93001075
 H     20  18  16     2.046194984593   110.70065299     7.13406788
 H     20  18  16     2.064788751501   109.34704928   246.81409113
 H     20  18  16     2.061741001200   109.71699873   127.97759962
 H     19  18  16     2.065904503824   110.79066042    96.60923264
 H     19  18  16     2.050693863906   109.88211072   335.80141911
 H     19  18  16     2.059498200223   108.66764917   216.03271943
 H      3   2   1     2.045128214072   120.71095124   185.91418977
 H      1   2   3     2.044106644015   120.78420003   173.22540257
 H      2   1   3     2.044704940578   119.58075374   183.70515992
 H      8   7   3     2.045295284104   118.15295328   354.99313636
 H      9   8   7     2.044705943239   121.61624379   187.49910925
 H     13  12  10     2.040213858280   116.05380095   178.63042794
 H     14  13  12     2.040366058801   119.52846234   178.00135819
 H     15  14  13     2.046328247862   120.62626355   189.40884049
 P     12  10   5     3.445569479014   121.89368416    45.21752596
 O     35  12  10     2.759757239026   111.87075031   333.01974673
 O     35  12  10     2.941588461218   102.69011539   201.49391313
 O     35  12  10     2.962695629095   100.38671788    98.82634481
 C     37  35  12     2.789794069387   124.69497577    93.86845081
 C     38  35  12     2.789307151974   122.21991921   271.47406685
 C     39  37  35     2.848299135696   107.73318444   152.44461840
 H     39  37  35     2.054427153749   108.03625849    31.07883361
 H     39  37  35     2.055342384191   106.65716156   272.95636222
 H     41  39  37     2.060227108533   111.07594354   297.88304213
 H     41  39  37     2.062913182085   108.59739968   178.65892157
 H     41  39  37     2.060611831501   111.05944144    59.61457267
 C     40  38  35     2.849245821438   107.56586574   191.32928064
 H     40  38  35     2.058531582133   107.67759128    70.64498909
 H     40  38  35     2.056242051797   107.83393811   312.40010151
 H     47  40  38     2.060492865291   111.07348638   299.49595287
 H     47  40  38     2.062682002886   108.69199401   180.29010380
 H     47  40  38     2.060605739695   111.00825859    61.12763709

---------------------
BASIS SET INFORMATION
---------------------
There are 5 groups of distinct atoms

 Group   1 Type C   : 11s6p2d contracted to 5s3p2d pattern {62111/411/11}
 Group   2 Type O   : 11s6p2d contracted to 5s3p2d pattern {62111/411/11}
 Group   3 Type N   : 11s6p2d contracted to 5s3p2d pattern {62111/411/11}
 Group   4 Type H   : 5s1p contracted to 3s1p pattern {311/1}
 Group   5 Type P   : 14s9p3d contracted to 5s5p2d pattern {73211/51111/21}

Atom   0C    basis set group =>   1
Atom   1C    basis set group =>   1
Atom   2C    basis set group =>   1
Atom   3C    basis set group =>   1
Atom   4C    basis set group =>   1
Atom   5O    basis set group =>   2
Atom   6C    basis set group =>   1
Atom   7C    basis set group =>   1
Atom   8C    basis set group =>   1
Atom   9C    basis set group =>   1
Atom  10C    basis set group =>   1
Atom  11N    basis set group =>   3
Atom  12C    basis set group =>   1
Atom  13C    basis set group =>   1
Atom  14C    basis set group =>   1
Atom  15C    basis set group =>   1
Atom  16O    basis set group =>   2
Atom  17N    basis set group =>   3
Atom  18C    basis set group =>   1
Atom  19C    basis set group =>   1
Atom  20H    basis set group =>   4
Atom  21H    basis set group =>   4
Atom  22H    basis set group =>   4
Atom  23H    basis set group =>   4
Atom  24H    basis set group =>   4
Atom  25H    basis set group =>   4
Atom  26H    basis set group =>   4
Atom  27H    basis set group =>   4
Atom  28H    basis set group =>   4
Atom  29H    basis set group =>   4
Atom  30H    basis set group =>   4
Atom  31H    basis set group =>   4
Atom  32H    basis set group =>   4
Atom  33H    basis set group =>   4
Atom  34P    basis set group =>   5
Atom  35O    basis set group =>   2
Atom  36O    basis set group =>   2
Atom  37O    basis set group =>   2
Atom  38C    basis set group =>   1
Atom  39C    basis set group =>   1
Atom  40C    basis set group =>   1
Atom  41H    basis set group =>   4
Atom  42H    basis set group =>   4
Atom  43H    basis set group =>   4
Atom  44H    basis set group =>   4
Atom  45H    basis set group =>   4
Atom  46C    basis set group =>   1
Atom  47H    basis set group =>   4
Atom  48H    basis set group =>   4
Atom  49H    basis set group =>   4
Atom  50H    basis set group =>   4
Atom  51H    basis set group =>   4
---------------------------------
AUXILIARY/J BASIS SET INFORMATION
---------------------------------
There are 5 groups of distinct atoms

 Group   1 Type C   : 12s5p4d2f1g contracted to 6s4p3d1f1g pattern {711111/2111/211/2/1}
 Group   2 Type O   : 12s5p4d2f1g contracted to 6s4p3d1f1g pattern {711111/2111/211/2/1}
 Group   3 Type N   : 12s5p4d2f1g contracted to 6s4p3d1f1g pattern {711111/2111/211/2/1}
 Group   4 Type H   : 5s2p1d contracted to 3s1p1d pattern {311/2/1}
 Group   5 Type P   : 14s5p5d2f1g contracted to 8s4p3d1f1g pattern {71111111/2111/311/2/1}

Atom   0C    basis set group =>   1
Atom   1C    basis set group =>   1
Atom   2C    basis set group =>   1
Atom   3C    basis set group =>   1
Atom   4C    basis set group =>   1
Atom   5O    basis set group =>   2
Atom   6C    basis set group =>   1
Atom   7C    basis set group =>   1
Atom   8C    basis set group =>   1
Atom   9C    basis set group =>   1
Atom  10C    basis set group =>   1
Atom  11N    basis set group =>   3
Atom  12C    basis set group =>   1
Atom  13C    basis set group =>   1
Atom  14C    basis set group =>   1
Atom  15C    basis set group =>   1
Atom  16O    basis set group =>   2
Atom  17N    basis set group =>   3
Atom  18C    basis set group =>   1
Atom  19C    basis set group =>   1
Atom  20H    basis set group =>   4
Atom  21H    basis set group =>   4
Atom  22H    basis set group =>   4
Atom  23H    basis set group =>   4
Atom  24H    basis set group =>   4
Atom  25H    basis set group =>   4
Atom  26H    basis set group =>   4
Atom  27H    basis set group =>   4
Atom  28H    basis set group =>   4
Atom  29H    basis set group =>   4
Atom  30H    basis set group =>   4
Atom  31H    basis set group =>   4
Atom  32H    basis set group =>   4
Atom  33H    basis set group =>   4
Atom  34P    basis set group =>   5
Atom  35O    basis set group =>   2
Atom  36O    basis set group =>   2
Atom  37O    basis set group =>   2
Atom  38C    basis set group =>   1
Atom  39C    basis set group =>   1
Atom  40C    basis set group =>   1
Atom  41H    basis set group =>   4
Atom  42H    basis set group =>   4
Atom  43H    basis set group =>   4
Atom  44H    basis set group =>   4
Atom  45H    basis set group =>   4
Atom  46C    basis set group =>   1
Atom  47H    basis set group =>   4
Atom  48H    basis set group =>   4
Atom  49H    basis set group =>   4
Atom  50H    basis set group =>   4
Atom  51H    basis set group =>   4
---------------------------------
AUXILIARY/C BASIS SET INFORMATION
---------------------------------
There are 5 groups of distinct atoms

 Group   1 Type C   : 8s6p5d3f1g contracted to 8s6p4d3f1g pattern {11111111/111111/2111/111/1}
 Group   2 Type O   : 8s6p5d3f1g contracted to 8s6p4d3f1g pattern {11111111/111111/2111/111/1}
 Group   3 Type N   : 8s6p5d3f1g contracted to 8s6p4d3f1g pattern {11111111/111111/2111/111/1}
 Group   4 Type H   : 4s3p2d contracted to 4s2p1d pattern {1111/21/2}
 Group   5 Type P   : 10s7p7d5f2g contracted to 9s7p6d5f2g pattern {211111111/1111111/211111/11111/11}

Atom   0C    basis set group =>   1
Atom   1C    basis set group =>   1
Atom   2C    basis set group =>   1
Atom   3C    basis set group =>   1
Atom   4C    basis set group =>   1
Atom   5O    basis set group =>   2
Atom   6C    basis set group =>   1
Atom   7C    basis set group =>   1
Atom   8C    basis set group =>   1
Atom   9C    basis set group =>   1
Atom  10C    basis set group =>   1
Atom  11N    basis set group =>   3
Atom  12C    basis set group =>   1
Atom  13C    basis set group =>   1
Atom  14C    basis set group =>   1
Atom  15C    basis set group =>   1
Atom  16O    basis set group =>   2
Atom  17N    basis set group =>   3
Atom  18C    basis set group =>   1
Atom  19C    basis set group =>   1
Atom  20H    basis set group =>   4
Atom  21H    basis set group =>   4
Atom  22H    basis set group =>   4
Atom  23H    basis set group =>   4
Atom  24H    basis set group =>   4
Atom  25H    basis set group =>   4
Atom  26H    basis set group =>   4
Atom  27H    basis set group =>   4
Atom  28H    basis set group =>   4
Atom  29H    basis set group =>   4
Atom  30H    basis set group =>   4
Atom  31H    basis set group =>   4
Atom  32H    basis set group =>   4
Atom  33H    basis set group =>   4
Atom  34P    basis set group =>   5
Atom  35O    basis set group =>   2
Atom  36O    basis set group =>   2
Atom  37O    basis set group =>   2
Atom  38C    basis set group =>   1
Atom  39C    basis set group =>   1
Atom  40C    basis set group =>   1
Atom  41H    basis set group =>   4
Atom  42H    basis set group =>   4
Atom  43H    basis set group =>   4
Atom  44H    basis set group =>   4
Atom  45H    basis set group =>   4
Atom  46C    basis set group =>   1
Atom  47H    basis set group =>   4
Atom  48H    basis set group =>   4
Atom  49H    basis set group =>   4
Atom  50H    basis set group =>   4
Atom  51H    basis set group =>   4
------------------------------------------------------------------------------
                           ORCA GTO INTEGRAL CALCULATION
                           -- RI-GTO INTEGRALS CHOSEN --
------------------------------------------------------------------------------
------------------------------------------------------------------------------
                   ___                                                        
                  /   \      - P O W E R E D   B Y -                         
                 /     \                                                     
                 |  |  |   _    _      __       _____    __    __             
                 |  |  |  | |  | |    /  \     |  _  \  |  |  /  |          
                  \  \/   | |  | |   /    \    | | | |  |  | /  /          
                 / \  \   | |__| |  /  /\  \   | |_| |  |  |/  /          
                |  |  |   |  __  | /  /__\  \  |    /   |      \           
                |  |  |   | |  | | |   __   |  |    \   |  |\   \          
                \     /   | |  | | |  |  |  |  | |\  \  |  | \   \       
                 \___/    |_|  |_| |__|  |__|  |_| \__\ |__|  \__/        
                                                                              
                      - O R C A' S   B I G   F R I E N D -                    
                                      &                                       
                       - I N T E G R A L  F E E D E R -                       
                                                                              
 v1 FN, 2020, v2 2021                                                         
------------------------------------------------------------------------------


Reading SHARK input file HBQ-DCP-GS.SHARKINP.tmp ... ok
----------------------
SHARK INTEGRAL PACKAGE
----------------------

Number of atoms                             ...     52
Number of basis functions                   ...    822
Number of shells                            ...    378
Maximum angular momentum                    ...      2
Integral batch strategy                     ... SHARK/LIBINT Hybrid
RI-J (if used) integral strategy            ... SPLIT-RIJ (Revised 2003 algorithm where possible)
Printlevel                                  ...      1
Contraction scheme used                     ... SEGMENTED contraction
Coulomb Range Separation                    ... NOT USED
Exchange Range Separation                   ... NOT USED
Finite Nucleus Model                        ... NOT USED
Auxiliary Coulomb fitting basis             ... AVAILABLE
   # of basis functions in Aux-J            ...   1638
   # of shells in Aux-J                     ...    542
   Maximum angular momentum in Aux-J        ...      4
Auxiliary J/K fitting basis                 ... NOT available
Auxiliary Correlation fitting basis         ... AVAILABLE
   # of basis functions in Aux-C            ...   2525
   # of shells in Aux-C                     ...    791
   Maximum angular momentum in Aux-C        ...      4
Auxiliary 'external' fitting basis          ... NOT available
Integral threshold                          ...     2.500000e-11
Primitive cut-off                           ...     2.500000e-12
Primitive pair pre-selection threshold      ...     2.500000e-12

Calculating pre-screening integrals         ... done (  1.7 sec) Dimension = 378
Organizing shell pair data                  ... done (  0.6 sec)
Shell pair information
Total number of shell pairs                 ...     71631
Shell pairs after pre-screening             ...     49230
Total number of primitive shell pairs       ...    234288
Primitive shell pairs kept                  ...    101764
          la=0 lb=0:  14712 shell pairs
          la=1 lb=0:  16435 shell pairs
          la=1 lb=1:   4624 shell pairs
          la=2 lb=0:   7835 shell pairs
          la=2 lb=1:   4487 shell pairs
          la=2 lb=2:   1137 shell pairs

Calculating one electron integrals          ... done (  0.3 sec)
Calculating RI/J V-Matrix + Cholesky decomp.... done (  0.8 sec)
Calculating RI/C V-Matrix + Cholesky decomp.... done (  1.1 sec)
Calculating Nuclear repulsion               ... done (  0.0 sec) ENN=   3108.728588876451 Eh

SHARK setup successfully completed in   4.9 seconds

Maximum memory used throughout the entire GTOINT-calculation: 345.5 MB
-------------------------------------------------------------------------------
                                 ORCA SCF
-------------------------------------------------------------------------------

------------
SCF SETTINGS
------------
Hamiltonian:
 Density Functional     Method          .... DFT(GTOs)
 Exchange Functional    Exchange        .... B88
   X-Alpha parameter    XAlpha          ....  0.666667
   Becke's b parameter  XBeta           ....  0.004200
 Correlation Functional Correlation     .... LYP
 LDA part of GGA corr.  LDAOpt          .... VWN-3
 Gradients option       PostSCFGGA      .... off
 Hybrid DFT is turned on
   Fraction HF Exchange ScalHFX         ....  0.200000
   Scaling of DF-GGA-X  ScalDFX         ....  0.720000
   Scaling of DF-GGA-C  ScalDFC         ....  0.810000
   Scaling of DF-LDA-C  ScalLDAC        ....  1.000000
   Perturbative correction              ....  0.000000
   Density functional embedding theory  .... OFF
   NL short-range parameter             ....  4.800000
 RI-approximation to the Coulomb term is turned on
   Number of AuxJ basis functions       .... 1638
   RIJ-COSX (HFX calculated with COS-X)).... on


General Settings:
 Integral files         IntName         .... HBQ-DCP-GS
 Hartree-Fock type      HFTyp           .... RHF
 Total Charge           Charge          ....    1
 Multiplicity           Mult            ....    1
 Number of Electrons    NEL             ....  212
 Basis Dimension        Dim             ....  822
 Nuclear Repulsion      ENuc            ....   3108.7285888765 Eh

Convergence Acceleration:
 DIIS                   CNVDIIS         .... on
   Start iteration      DIISMaxIt       ....    12
   Startup error        DIISStart       ....  0.200000
   # of expansion vecs  DIISMaxEq       ....     5
   Bias factor          DIISBfac        ....   1.050
   Max. coefficient     DIISMaxC        ....  10.000
 Trust-Rad. Augm. Hess. CNVTRAH         .... auto
   Auto Start mean grad. ratio tolernc. ....  1.125000
   Auto Start start iteration           ....    20
   Auto Start num. interpolation iter.  ....    10
   Max. Number of Micro iterations      ....    16
   Max. Number of Macro iterations      .... Maxiter - #DIIS iter
   Number of Davidson start vectors     ....     2
   Converg. threshold I  (grad. norm)   ....   1.000e-05
   Converg. threshold II (energy diff.) ....   1.000e-08
   Grad. Scal. Fac. for Micro threshold ....   0.100
   Minimum threshold for Micro iter.    ....   0.010
   NR start threshold (gradient norm)   ....   0.001
   Initial trust radius                 ....   0.400
   Minimum AH scaling param. (alpha)    ....   1.000
   Maximum AH scaling param. (alpha)    .... 1000.000
   Orbital update algorithm             .... Taylor
   White noise on init. David. guess    .... on
   Maximum white noise                  ....   0.010
   Quad. conv. algorithm                .... NR
 SOSCF                  CNVSOSCF        .... on
   Start iteration      SOSCFMaxIt      ....   150
   Startup grad/error   SOSCFStart      ....  0.003300
 Level Shifting         CNVShift        .... on
   Level shift para.    LevelShift      ....    0.2500
   Turn off err/grad.   ShiftErr        ....    0.0010
 Zerner damping         CNVZerner       .... off
 Static damping         CNVDamp         .... on
   Fraction old density DampFac         ....    0.7000
   Max. Damping (<1)    DampMax         ....    0.9800
   Min. Damping (>=0)   DampMin         ....    0.0000
   Turn off err/grad.   DampErr         ....    0.1000
 Fernandez-Rico         CNVRico         .... off

SCF Procedure:
 Maximum # iterations   MaxIter         ....   125
 SCF integral mode      SCFMode         .... Direct
   Integral package                     .... SHARK and LIBINT hybrid scheme
 Reset frequency        DirectResetFreq ....    20
 Integral Threshold     Thresh          ....  2.500e-11 Eh
 Primitive CutOff       TCut            ....  2.500e-12 Eh

Convergence Tolerance:
 Convergence Check Mode ConvCheckMode   .... Total+1el-Energy
 Convergence forced     ConvForced      .... 0
 Energy Change          TolE            ....  1.000e-08 Eh
 1-El. energy change                    ....  1.000e-05 Eh
 Orbital Gradient       TolG            ....  1.000e-05
 Orbital Rotation angle TolX            ....  1.000e-05
 DIIS Error             TolErr          ....  5.000e-07


Diagonalization of the overlap matrix:
Smallest eigenvalue                        ... 5.011e-06
Time for diagonalization                   ...    0.080 sec
Threshold for overlap eigenvalues          ... 1.000e-08
Number of eigenvalues below threshold      ... 0
Time for construction of square roots      ...    0.125 sec
Total time needed                          ...    0.206 sec

Time for model grid setup =    1.696 sec

------------------------------
INITIAL GUESS: MODEL POTENTIAL
------------------------------
Loading Hartree-Fock densities                     ... done
Calculating cut-offs                               ... done
Initializing the effective Hamiltonian             ... done
Setting up the integral package (SHARK)            ... done
Starting the Coulomb interaction                   ... done (   4.3 sec)
Reading the grid                                   ... done
Mapping shells                                     ... done
Starting the XC term evaluation                    ... done (   1.9 sec)
  promolecular density results
     # of electrons  =    212.993726050
     EX              =   -186.965349962
     EC              =     -7.403959652
     EX+EC           =   -194.369309613
Transforming the Hamiltonian                       ... done (   0.1 sec)
Diagonalizing the Hamiltonian                      ... done (   0.1 sec)
Back transforming the eigenvectors                 ... done (   0.0 sec)
Now organizing SCF variables                       ... done
                      ------------------
                      INITIAL GUESS DONE (   8.1 sec)
                      ------------------
-------------------
DFT GRID GENERATION
-------------------

General Integration Accuracy     IntAcc      ... 4.388
Radial Grid Type                 RadialGrid  ... OptM3 with GC (2021)
Angular Grid (max. ang.)         AngularGrid ... 4 (Lebedev-302)
Angular grid pruning method      GridPruning ... 4 (adaptive)
Weight generation scheme         WeightScheme... Becke
Basis function cutoff            BFCut       ... 1.0000e-11
Integration weight cutoff        WCut        ... 1.0000e-14
Angular grids for H and He will be reduced by one unit
Partially contracted basis set               ... off
Rotationally invariant grid construction     ... off

Total number of grid points                  ...   244514
Total number of batches                      ...     3846
Average number of points per batch           ...       63
Average number of grid points per atom       ...     4702
Time for grid setup =    5.491 sec

--------------------
COSX GRID GENERATION
--------------------

GRIDX 1
-------
General Integration Accuracy     IntAcc      ... 3.816
Radial Grid Type                 RadialGrid  ... OptM3 with GC (2021)
Angular Grid (max. ang.)         AngularGrid ... 1 (Lebedev-50)
Angular grid pruning method      GridPruning ... 4 (adaptive)
Weight generation scheme         WeightScheme... Becke
Basis function cutoff            BFCut       ... 1.0000e-11
Integration weight cutoff        WCut        ... 1.0000e-14
Angular grids for H and He will be reduced by one unit
Partially contracted basis set               ... on
Rotationally invariant grid construction     ... off

Total number of grid points                  ...    31005
Total number of batches                      ...      511
Average number of points per batch           ...       60
Average number of grid points per atom       ...      596
UseSFitting                                  ... on

GRIDX 2
-------
General Integration Accuracy     IntAcc      ... 4.020
Radial Grid Type                 RadialGrid  ... OptM3 with GC (2021)
Angular Grid (max. ang.)         AngularGrid ... 2 (Lebedev-110)
Angular grid pruning method      GridPruning ... 4 (adaptive)
Weight generation scheme         WeightScheme... Becke
Basis function cutoff            BFCut       ... 1.0000e-11
Integration weight cutoff        WCut        ... 1.0000e-14
Angular grids for H and He will be reduced by one unit
Partially contracted basis set               ... on
Rotationally invariant grid construction     ... off

Total number of grid points                  ...    66553
Total number of batches                      ...     1067
Average number of points per batch           ...       62
Average number of grid points per atom       ...     1280
UseSFitting                                  ... on

GRIDX 3
-------
General Integration Accuracy     IntAcc      ... 4.338
Radial Grid Type                 RadialGrid  ... OptM3 with GC (2021)
Angular Grid (max. ang.)         AngularGrid ... 3 (Lebedev-194)
Angular grid pruning method      GridPruning ... 4 (adaptive)
Weight generation scheme         WeightScheme... Becke
Basis function cutoff            BFCut       ... 1.0000e-11
Integration weight cutoff        WCut        ... 1.0000e-14
Angular grids for H and He will be reduced by one unit
Partially contracted basis set               ... on
Rotationally invariant grid construction     ... off

Total number of grid points                  ...   145353
Total number of batches                      ...     2299
Average number of points per batch           ...       63
Average number of grid points per atom       ...     2795
UseSFitting                                  ... on

Time for X-Grid setup             =    8.758 sec


--------------------
CPCM SOLVATION MODEL
--------------------
CPCM parameters:
  Epsilon                                         ...      80.4000
  Refrac                                          ...       1.3300
  Rsolv                                           ...       1.3000
  Surface type                                    ... GAUSSIAN VDW
  Epsilon function type                           ...         CPCM
Radii:
 Radius for C  used is    3.8550 Bohr (=   2.0400 Ang.)
 Radius for O  used is    3.4469 Bohr (=   1.8240 Ang.)
 Radius for N  used is    3.5149 Bohr (=   1.8600 Ang.)
 Radius for H  used is    2.4944 Bohr (=   1.3200 Ang.)
 Radius for P  used is    4.0818 Bohr (=   2.1600 Ang.)
Calculating surface                               ...        done! (  0.0s)
GEPOL surface points                              ...         2775
GEPOL Volume                                      ...    3080.2550
GEPOL Surface-area                                ...    1524.2888
Calculating surface distance matrix               ...        done! (  0.0s)
Performing Cholesky decomposition & store         ...        done! (  0.7s)
Overall time for CPCM initialization              ...                 0.8s
--------------
SCF ITERATIONS
--------------
ITER       Energy         Delta-E        Max-DP      RMS-DP      [F,P]     Damp
               ***  Starting incremental Fock matrix formation  ***
  0  -1603.1887559329   0.000000000000 0.14404226  0.00099458  0.3681279 0.7000
  1  -1603.5774867346  -0.388730801731 0.06530518  0.00072855  0.1270232 0.7000
                               ***Turning on DIIS***
  2  -1603.7185869509  -0.141100216301 0.14152636  0.00131965  0.0383636 0.0000
  3  -1603.9603057290  -0.241718778064 0.05353620  0.00047841  0.0602469 0.0000
  4  -1604.0046632182  -0.044357489197 0.01885535  0.00020097  0.0240357 0.0000
  5  -1604.0080470031  -0.003383784889 0.00463822  0.00005685  0.0091256 0.0000
                      *** Initiating the SOSCF procedure ***
                           *** Shutting down DIIS ***
                      *** Re-Reading the Fockian *** 
                      *** Removing any level shift *** 
ITER      Energy       Delta-E        Grad      Rot      Max-DP    RMS-DP
  6  -1604.00826038  -0.0002133743  0.000313  0.000313  0.003335  0.000025
               *** Restarting incremental Fock matrix formation ***
  7  -1604.00822871   0.0000316691  0.000115  0.000544  0.001685  0.000023
  8  -1604.00822773   0.0000009789  0.000197  0.000546  0.000563  0.000007
  9  -1604.00823215  -0.0000044178  0.000040  0.000202  0.000362  0.000005
 10  -1604.00823200   0.0000001436  0.000042  0.000099  0.000141  0.000001
 11  -1604.00823232  -0.0000003132  0.000006  0.000025  0.000297  0.000002
 12  -1604.00823230   0.0000000122  0.000009  0.000013  0.000154  0.000001
                  ***Gradient check signals convergence***
              ***Rediagonalizing the Fockian in SOSCF/NRSCF***

               *****************************************************
               *                     SUCCESS                       *
               *           SCF CONVERGED AFTER  13 CYCLES          *
               *****************************************************

Old exchange energy                            =    -37.870298161 Eh
New exchange energy                            =    -37.870288143 Eh
Exchange energy change after final integration =      0.000010019 Eh
Total energy after final integration           =  -1604.008222264 Eh
Final COS-X integration done in                =   195.806 sec

----------------
TOTAL SCF ENERGY
----------------

Total Energy       :        -1604.00822226 Eh          -43647.28271 eV

Components:
Nuclear Repulsion  :         3108.72858888 Eh           84592.80552 eV
Electronic Energy  :        -4712.73681114 Eh         -128240.08823 eV
One Electron Energy:        -8351.52403099 Eh         -227256.52238 eV
Two Electron Energy:         3638.78721985 Eh           99016.43415 eV
Max COSX asymmetry :            0.00000251 Eh               0.00007 eV
CPCM Dielectric    :           -0.08275799 Eh              -2.25196 eV

Virial components:
Potential Energy   :        -3201.14685463 Eh          -87107.63438 eV
Kinetic Energy     :         1597.13863236 Eh           43460.35167 eV
Virial Ratio       :            2.00430119


DFT components:
N(Alpha)           :      106.000143314212 electrons
N(Beta)            :      106.000143314212 electrons
N(Total)           :      212.000286628425 electrons
E(X)               :     -150.518731315770 Eh       
E(C)               :       -9.463010483745 Eh       
E(XC)              :     -159.981741799515 Eh       
DFET-embed. en.    :        0.000000000000 Eh       
CPCM Solvation Model Properties:
Surface-charge          :           -1.03434034
Charge-correction       :            0.00299620 Eh               0.08153 eV
Free-energy (cav+disp)  :  This term is not implemented in the current solvation scheme

---------------
SCF CONVERGENCE
---------------

  Last Energy change         ...    2.2404e-08  Tolerance :   1.0000e-08
  Last MAX-Density change    ...    2.3315e-15  Tolerance :   1.0000e-07
  Last RMS-Density change    ...    1.6707e-17  Tolerance :   5.0000e-09
  Last Orbital Gradient      ...    1.9399e-06  Tolerance :   1.0000e-05
  Last Orbital Rotation      ...    5.0978e-06  Tolerance :   1.0000e-05

             **** THE GBW FILE WAS UPDATED (HBQ-DCP-GS.gbw) ****
             **** DENSITY HBQ-DCP-GS.scfp WAS UPDATED ****
             **** ENERGY FILE WAS UPDATED (HBQ-DCP-GS.en.tmp) ****
             **** THE GBW FILE WAS UPDATED (HBQ-DCP-GS.gbw) ****
             **** DENSITY HBQ-DCP-GS.scfp WAS UPDATED ****
----------------
ORBITAL ENERGIES
----------------

  NO   OCC          E(Eh)            E(eV) 
   0   2.0000     -77.221061     -2101.2919 
   1   2.0000     -19.189716      -522.1787 
   2   2.0000     -19.186526      -522.0919 
   3   2.0000     -19.185156      -522.0546 
   4   2.0000     -19.124914      -520.4154 
   5   2.0000     -19.113472      -520.1040 
   6   2.0000     -14.430095      -392.6629 
   7   2.0000     -14.364388      -390.8749 
   8   2.0000     -10.332504      -281.1617 
   9   2.0000     -10.278439      -279.6905 
  10   2.0000     -10.267952      -279.4052 
  11   2.0000     -10.263350      -279.2799 
  12   2.0000     -10.247106      -278.8379 
  13   2.0000     -10.245486      -278.7939 
  14   2.0000     -10.233355      -278.4637 
  15   2.0000     -10.230045      -278.3737 
  16   2.0000     -10.223055      -278.1835 
  17   2.0000     -10.216977      -278.0181 
  18   2.0000     -10.216866      -278.0150 
  19   2.0000     -10.203215      -277.6436 
  20   2.0000     -10.202122      -277.6139 
  21   2.0000     -10.201625      -277.6003 
  22   2.0000     -10.201323      -277.5921 
  23   2.0000     -10.197720      -277.4941 
  24   2.0000     -10.193602      -277.3820 
  25   2.0000     -10.192869      -277.3621 
  26   2.0000     -10.170427      -276.7514 
  27   2.0000     -10.170086      -276.7421 
  28   2.0000      -6.688594      -182.0059 
  29   2.0000      -4.851490      -132.0158 
  30   2.0000      -4.850332      -131.9842 
  31   2.0000      -4.849473      -131.9609 
  32   2.0000      -1.126190       -30.6452 
  33   2.0000      -1.119805       -30.4714 
  34   2.0000      -1.064013       -28.9533 
  35   2.0000      -1.037428       -28.2298 
  36   2.0000      -1.028065       -27.9751 
  37   2.0000      -1.006649       -27.3923 
  38   2.0000      -0.957441       -26.0533 
  39   2.0000      -0.907702       -24.6998 
  40   2.0000      -0.871329       -23.7101 
  41   2.0000      -0.843428       -22.9508 
  42   2.0000      -0.812212       -22.1014 
  43   2.0000      -0.795874       -21.6568 
  44   2.0000      -0.777990       -21.1702 
  45   2.0000      -0.773993       -21.0614 
  46   2.0000      -0.765367       -20.8267 
  47   2.0000      -0.728953       -19.8358 
  48   2.0000      -0.720502       -19.6059 
  49   2.0000      -0.697825       -18.9888 
  50   2.0000      -0.688193       -18.7267 
  51   2.0000      -0.673406       -18.3243 
  52   2.0000      -0.657561       -17.8931 
  53   2.0000      -0.642286       -17.4775 
  54   2.0000      -0.635139       -17.2830 
  55   2.0000      -0.612292       -16.6613 
  56   2.0000      -0.598590       -16.2885 
  57   2.0000      -0.576239       -15.6803 
  58   2.0000      -0.561419       -15.2770 
  59   2.0000      -0.550823       -14.9887 
  60   2.0000      -0.550325       -14.9751 
  61   2.0000      -0.542350       -14.7581 
  62   2.0000      -0.539722       -14.6866 
  63   2.0000      -0.514848       -14.0097 
  64   2.0000      -0.510301       -13.8860 
  65   2.0000      -0.507574       -13.8118 
  66   2.0000      -0.501032       -13.6338 
  67   2.0000      -0.497087       -13.5264 
  68   2.0000      -0.493956       -13.4412 
  69   2.0000      -0.488107       -13.2821 
  70   2.0000      -0.474529       -12.9126 
  71   2.0000      -0.467752       -12.7282 
  72   2.0000      -0.461762       -12.5652 
  73   2.0000      -0.457331       -12.4446 
  74   2.0000      -0.456261       -12.4155 
  75   2.0000      -0.448124       -12.1941 
  76   2.0000      -0.441586       -12.0162 
  77   2.0000      -0.440021       -11.9736 
  78   2.0000      -0.430955       -11.7269 
  79   2.0000      -0.419072       -11.4035 
  80   2.0000      -0.414962       -11.2917 
  81   2.0000      -0.412884       -11.2352 
  82   2.0000      -0.408685       -11.1209 
  83   2.0000      -0.406402       -11.0588 
  84   2.0000      -0.403083       -10.9684 
  85   2.0000      -0.400495       -10.8980 
  86   2.0000      -0.400068       -10.8864 
  87   2.0000      -0.393319       -10.7028 
  88   2.0000      -0.392128       -10.6704 
  89   2.0000      -0.387829       -10.5534 
  90   2.0000      -0.381833       -10.3902 
  91   2.0000      -0.377287       -10.2665 
  92   2.0000      -0.374500       -10.1907 
  93   2.0000      -0.369978       -10.0676 
  94   2.0000      -0.361239        -9.8298 
  95   2.0000      -0.352136        -9.5821 
  96   2.0000      -0.344117        -9.3639 
  97   2.0000      -0.340301        -9.2600 
  98   2.0000      -0.336124        -9.1464 
  99   2.0000      -0.330243        -8.9864 
 100   2.0000      -0.326386        -8.8814 
 101   2.0000      -0.303235        -8.2514 
 102   2.0000      -0.300680        -8.1819 
 103   2.0000      -0.271695        -7.3932 
 104   2.0000      -0.262754        -7.1499 
 105   2.0000      -0.246762        -6.7147 
 106   0.0000      -0.118307        -3.2193 
 107   0.0000      -0.082050        -2.2327 
 108   0.0000      -0.041739        -1.1358 
 109   0.0000      -0.018455        -0.5022 
 110   0.0000       0.014894         0.4053 
 111   0.0000       0.018072         0.4918 
 112   0.0000       0.026112         0.7106 
 113   0.0000       0.031485         0.8567 
 114   0.0000       0.039679         1.0797 
 115   0.0000       0.050948         1.3864 
 116   0.0000       0.053647         1.4598 
 117   0.0000       0.055450         1.5089 
 118   0.0000       0.058965         1.6045 
 119   0.0000       0.066145         1.7999 
 120   0.0000       0.067329         1.8321 
 121   0.0000       0.070880         1.9287 
 122   0.0000       0.073088         1.9888 
 123   0.0000       0.080520         2.1911 
 124   0.0000       0.082224         2.2374 
 125   0.0000       0.087235         2.3738 
 126   0.0000       0.089155         2.4260 
 127   0.0000       0.094719         2.5774 
 128   0.0000       0.097816         2.6617 
 129   0.0000       0.099867         2.7175 
[...]
 61:    818.91   0.000266    1.34  0.000101  ( 0.006322 -0.006284  0.004663)
 62:    820.55   0.004814   24.33  0.001831  ( 0.030719 -0.027857 -0.010535)
 63:    824.29   0.001217    6.15  0.000461  (-0.011953  0.005862 -0.016836)
 64:    827.04   0.002201   11.12  0.000830  (-0.027935 -0.001067 -0.006997)
 65:    857.38   0.008894   44.95  0.003237  (-0.031433 -0.008232 -0.046706)
 66:    871.51   0.025335  128.04  0.009072  ( 0.061738  0.012358  0.071468)
 67:    902.95   0.011824   59.75  0.004086  (-0.010501 -0.044514 -0.044662)
 68:    928.44   0.000774    3.91  0.000260  (-0.004122 -0.003704 -0.015147)
 69:    974.29   0.033787  170.75  0.010822  (-0.085653 -0.018139 -0.056183)
 70:    980.42   0.001325    6.69  0.000422  ( 0.001134 -0.001491  0.020448)
 71:    985.65   0.012781   64.59  0.004047  ( 0.031400  0.003034  0.055239)
 72:    989.05   0.012753   64.45  0.004024  ( 0.048997 -0.004693  0.040011)
 73:    989.50   0.113275  572.45  0.035724  ( 0.172322 -0.074699  0.021197)
 74:    995.38   0.001166    5.89  0.000365  ( 0.013443  0.002509  0.013358)
 75:   1004.87   0.118599  599.35  0.036831  (-0.179398  0.050786 -0.045477)
 76:   1018.54   0.000850    4.30  0.000261  (-0.014174  0.003836 -0.006700)
 77:   1030.39   0.014946   75.53  0.004527  (-0.037280  0.053720  0.015843)
 78:   1036.24   0.050709  256.26  0.015271  (-0.100021  0.071934 -0.009603)
 79:   1053.05   0.034362  173.65  0.010183  ( 0.039841 -0.061770 -0.069138)
 80:   1073.69   0.006166   31.16  0.001792  ( 0.018992 -0.009410  0.036644)
 81:   1104.51   0.000880    4.45  0.000249  ( 0.001215  0.015250 -0.003821)
 82:   1116.93   0.000953    4.81  0.000266  (-0.001577  0.015324  0.005370)
 83:   1118.63   0.003725   18.83  0.001039  ( 0.013641  0.028000  0.008319)
 84:   1126.23   0.007010   35.42  0.001942  (-0.035720  0.012933 -0.022340)
 85:   1127.50   0.001459    7.37  0.000404  (-0.014643 -0.010277 -0.009150)
 86:   1142.94   0.127644  645.06  0.034852  ( 0.150839 -0.075607  0.079891)
 87:   1152.33   0.038487  194.50  0.010423  ( 0.092693 -0.041438 -0.010659)
 88:   1171.22   0.001052    5.31  0.000280  (-0.010708  0.012807  0.001235)
 89:   1171.68   0.001939    9.80  0.000517  (-0.017422  0.002604  0.014361)
 90:   1178.14   0.004271   21.58  0.001131  ( 0.003264 -0.030862  0.012967)
 91:   1180.03   0.004162   21.03  0.001101  (-0.021224  0.020488 -0.015178)
 92:   1187.68   0.001045    5.28  0.000275  ( 0.005855  0.000819  0.015478)
 93:   1212.08   0.009038   45.67  0.002327  (-0.013724  0.020398 -0.041502)
 94:   1235.13   0.000709    3.58  0.000179  ( 0.010964 -0.006059 -0.004708)
 95:   1252.72   0.027087  136.88  0.006748  (-0.065965  0.035553 -0.033648)
 96:   1270.22   0.002194   11.09  0.000539  (-0.001941 -0.012847  0.019240)
 97:   1278.04   0.007216   36.46  0.001762  ( 0.020915 -0.034261 -0.012272)
 98:   1297.78   0.003877   19.59  0.000932  ( 0.006872 -0.027468 -0.011425)
 99:   1310.58   0.045578  230.33  0.010853  ( 0.037136  0.085715 -0.046114)
100:   1311.80   0.004225   21.35  0.001005  ( 0.000648  0.026406 -0.017531)
101:   1318.57   0.015215   76.89  0.003601  ( 0.017705  0.052638 -0.022733)
102:   1346.78   0.004357   22.02  0.001010  ( 0.025750 -0.018403 -0.002800)
103:   1354.05   0.005045   25.50  0.001163  (-0.031337 -0.006567  0.011734)
104:   1403.07   0.000146    0.74  0.000032  (-0.000782  0.005013  0.002578)
105:   1405.39   0.001192    6.02  0.000265  ( 0.012894  0.009399  0.003181)
106:   1410.19   0.069049  348.94  0.015280  ( 0.065706 -0.089146  0.054915)
107:   1417.82   0.001408    7.11  0.000310  (-0.008335  0.013789  0.007090)
108:   1419.22   0.037607  190.05  0.008269  (-0.062990 -0.063962  0.014503)
109:   1422.86   0.003200   16.17  0.000702  ( 0.009129 -0.006999  0.023865)
110:   1441.58   0.001816    9.18  0.000393  (-0.015595 -0.000585  0.012234)
111:   1450.82   0.007121   35.99  0.001532  (-0.000091 -0.034421  0.018628)
112:   1454.69   0.010695   54.05  0.002294  ( 0.000858 -0.042787  0.021517)
113:   1463.16   0.006304   31.86  0.001344  (-0.010029 -0.024135 -0.025717)
114:   1469.42   0.001940    9.80  0.000412  ( 0.009105 -0.001794 -0.018050)
115:   1469.55   0.002855   14.43  0.000606  (-0.003223 -0.006965  0.023395)
116:   1476.65   0.014948   75.54  0.003159  (-0.038036 -0.037745  0.016962)
117:   1478.24   0.003510   17.74  0.000741  (-0.021597 -0.007764  0.014635)
118:   1482.31   0.000594    3.00  0.000125  (-0.008794  0.006116 -0.003197)
119:   1483.54   0.001360    6.87  0.000286  ( 0.006115 -0.015568 -0.002496)
120:   1487.10   0.004708   23.79  0.000988  ( 0.013852  0.028198 -0.000931)
121:   1494.68   0.003878   19.60  0.000810  ( 0.003668 -0.017476 -0.022152)
122:   1507.90   0.001712    8.65  0.000354  (-0.002251 -0.018053 -0.004838)
123:   1514.74   0.004090   20.67  0.000843  ( 0.012240  0.015683  0.021139)
124:   1521.84   0.012112   61.21  0.002484  ( 0.036580  0.002227  0.033773)
125:   1525.45   0.006799   34.36  0.001391  (-0.008345  0.020027 -0.030332)
126:   1552.58   0.015102   76.32  0.003036  (-0.003209  0.054743  0.005328)
127:   1596.83   0.017008   85.95  0.003324  ( 0.017868 -0.052132 -0.016934)
128:   1613.12   0.009741   49.23  0.001884  (-0.027612 -0.021817  0.025418)
129:   1639.92   0.008668   43.81  0.001649  (-0.005378 -0.038091  0.013024)
130:   1654.38   0.020356  102.87  0.003840  ( 0.043954  0.017305 -0.040103)
131:   1719.40   0.192167  971.13  0.034877  ( 0.136681 -0.079965 -0.099001)
132:   3031.77   0.007075   35.75  0.000728  ( 0.011642  0.003523  0.024088)
133:   3036.29   0.016311   82.43  0.001676  (-0.040288  0.005022  0.005298)
134:   3042.90   0.002423   12.25  0.000249  ( 0.011612  0.009415  0.005003)
135:   3043.10   0.002869   14.50  0.000294  ( 0.003136 -0.016003 -0.005317)
136:   3074.98   0.003329   16.82  0.000338  (-0.005704  0.017468 -0.000406)
137:   3086.25   0.009538   48.20  0.000964  ( 0.010199  0.028296  0.007730)
138:   3089.16   0.001342    6.78  0.000136  ( 0.010059 -0.004356  0.003920)
139:   3098.15   0.004172   21.08  0.000420  (-0.000798  0.020478 -0.000462)
140:   3109.65   0.001345    6.80  0.000135  (-0.004346 -0.003409  0.010221)
141:   3111.17   0.004346   21.96  0.000436  (-0.019512 -0.006991  0.002525)
142:   3111.21   0.005232   26.44  0.000525  (-0.005376  0.022183 -0.001953)
143:   3113.66   0.003679   18.59  0.000369  ( 0.010157  0.001105  0.016259)
144:   3138.18   0.006542   33.06  0.000651  (-0.009008  0.000590  0.023854)
145:   3152.73   0.004078   20.61  0.000404  ( 0.001001  0.006604 -0.018948)
146:   3162.92   0.001235    6.24  0.000122  (-0.007432 -0.000623  0.008136)
147:   3189.06   0.000083    0.42  0.000008  ( 0.001124  0.000712 -0.002526)
148:   3189.84   0.000772    3.90  0.000076  (-0.004143  0.003129 -0.006968)
149:   3192.85   0.000326    1.65  0.000032  ( 0.005128  0.000974 -0.002152)
150:   3199.85   0.001586    8.02  0.000155  (-0.000990  0.011729 -0.004019)
151:   3202.00   0.000061    0.31  0.000006  (-0.001357  0.001987  0.000335)
152:   3206.80   0.000606    3.06  0.000059  ( 0.004440 -0.006183 -0.000992)
153:   3209.38   0.000552    2.79  0.000054  ( 0.002930  0.005871 -0.003262)
154:   3228.76   0.001243    6.28  0.000120  (-0.004736  0.007991  0.005815)
155:   3240.22   0.004402   22.25  0.000424  ( 0.001725 -0.020417 -0.002032)

* The epsilon (eps) is given for a Dirac delta lineshape.
** The dipole moment derivative (T) already includes vibrational overlap.

The first frequency considered to be a vibration is 6
The total number of vibrations considered is 150


--------------------------
THERMOCHEMISTRY AT 298.15K
--------------------------

Temperature         ... 298.15 K
Pressure            ... 1.00 atm
Total Mass          ... 403.39 AMU

Throughout the following assumptions are being made:
  (1) The electronic state is orbitally nondegenerate
  (2) There are no thermally accessible electronically excited states
  (3) Hindered rotations indicated by low frequency modes are not
      treated as such but are treated as vibrations and this may
      cause some error
  (4) All equations used are the standard statistical mechanics
      equations for an ideal gas
  (5) All vibrations are strictly harmonic

freq.      14.98  E(vib)   ...       0.57 
freq.      24.90  E(vib)   ...       0.56 
freq.      27.11  E(vib)   ...       0.55 
freq.      32.02  E(vib)   ...       0.55 
freq.      49.41  E(vib)   ...       0.52 
freq.      55.13  E(vib)   ...       0.52 
freq.      57.68  E(vib)   ...       0.51 
freq.      63.74  E(vib)   ...       0.51 
freq.      76.16  E(vib)   ...       0.49 
freq.      83.49  E(vib)   ...       0.48 
freq.      89.32  E(vib)   ...       0.47 
freq.     103.73  E(vib)   ...       0.46 
freq.     120.30  E(vib)   ...       0.44 
freq.     122.11  E(vib)   ...       0.43 
freq.     146.03  E(vib)   ...       0.41 
freq.     150.48  E(vib)   ...       0.40 
freq.     165.47  E(vib)   ...       0.39 
freq.     179.96  E(vib)   ...       0.37 
freq.     193.61  E(vib)   ...       0.36 
freq.     210.86  E(vib)   ...       0.34 
freq.     230.85  E(vib)   ...       0.32 
freq.     239.77  E(vib)   ...       0.31 
freq.     244.72  E(vib)   ...       0.31 
freq.     256.55  E(vib)   ...       0.30 
freq.     261.85  E(vib)   ...       0.29 
freq.     298.90  E(vib)   ...       0.26 
freq.     320.05  E(vib)   ...       0.25 
freq.     321.30  E(vib)   ...       0.25 
freq.     332.72  E(vib)   ...       0.24 
freq.     350.87  E(vib)   ...       0.23 
freq.     367.35  E(vib)   ...       0.21 
freq.     400.30  E(vib)   ...       0.19 
freq.     407.99  E(vib)   ...       0.19 
freq.     429.72  E(vib)   ...       0.18 
freq.     450.83  E(vib)   ...       0.17 
freq.     465.74  E(vib)   ...       0.16 
freq.     488.28  E(vib)   ...       0.15 
freq.     495.14  E(vib)   ...       0.14 
freq.     507.35  E(vib)   ...       0.14 
freq.     519.99  E(vib)   ...       0.13 
freq.     533.88  E(vib)   ...       0.13 
freq.     556.02  E(vib)   ...       0.12 
freq.     565.15  E(vib)   ...       0.11 
freq.     588.46  E(vib)   ...       0.10 
freq.     610.69  E(vib)   ...       0.10 
freq.     632.62  E(vib)   ...       0.09 
freq.     656.46  E(vib)   ...       0.08 
freq.     715.28  E(vib)   ...       0.07 
freq.     731.00  E(vib)   ...       0.06 
freq.     741.62  E(vib)   ...       0.06 
freq.     762.11  E(vib)   ...       0.06 
freq.     767.27  E(vib)   ...       0.06 
freq.     773.67  E(vib)   ...       0.05 
freq.     780.72  E(vib)   ...       0.05 
freq.     795.09  E(vib)   ...       0.05 
freq.     818.91  E(vib)   ...       0.05 
freq.     820.55  E(vib)   ...       0.05 
freq.     824.29  E(vib)   ...       0.04 
freq.     827.04  E(vib)   ...       0.04 
freq.     857.38  E(vib)   ...       0.04 
freq.     871.51  E(vib)   ...       0.04 
freq.     902.95  E(vib)   ...       0.03 
freq.     928.44  E(vib)   ...       0.03 
freq.     974.29  E(vib)   ...       0.03 
freq.     980.42  E(vib)   ...       0.02 
freq.     985.65  E(vib)   ...       0.02 
freq.     989.05  E(vib)   ...       0.02 
freq.     989.50  E(vib)   ...       0.02 
freq.     995.38  E(vib)   ...       0.02 
freq.    1004.87  E(vib)   ...       0.02 
freq.    1018.54  E(vib)   ...       0.02 
freq.    1030.39  E(vib)   ...       0.02 
freq.    1036.24  E(vib)   ...       0.02 
freq.    1053.05  E(vib)   ...       0.02 
freq.    1073.69  E(vib)   ...       0.02 
freq.    1104.51  E(vib)   ...       0.02 
freq.    1116.93  E(vib)   ...       0.01 
freq.    1118.63  E(vib)   ...       0.01 
freq.    1126.23  E(vib)   ...       0.01 
freq.    1127.50  E(vib)   ...       0.01 
freq.    1142.94  E(vib)   ...       0.01 
freq.    1152.33  E(vib)   ...       0.01 
freq.    1171.22  E(vib)   ...       0.01 
freq.    1171.68  E(vib)   ...       0.01 
freq.    1178.14  E(vib)   ...       0.01 
freq.    1180.03  E(vib)   ...       0.01 
freq.    1187.68  E(vib)   ...       0.01 
freq.    1212.08  E(vib)   ...       0.01 
freq.    1235.13  E(vib)   ...       0.01 
freq.    1252.72  E(vib)   ...       0.01 
freq.    1270.22  E(vib)   ...       0.01 
freq.    1278.04  E(vib)   ...       0.01 
freq.    1297.78  E(vib)   ...       0.01 
freq.    1310.58  E(vib)   ...       0.01 
freq.    1311.80  E(vib)   ...       0.01 
freq.    1318.57  E(vib)   ...       0.01 
freq.    1346.78  E(vib)   ...       0.01 
freq.    1354.05  E(vib)   ...       0.01 
freq.    1403.07  E(vib)   ...       0.00 
freq.    1405.39  E(vib)   ...       0.00 
freq.    1410.19  E(vib)   ...       0.00 
freq.    1417.82  E(vib)   ...       0.00 
freq.    1419.22  E(vib)   ...       0.00 
freq.    1422.86  E(vib)   ...       0.00 
freq.    1441.58  E(vib)   ...       0.00 
freq.    1450.82  E(vib)   ...       0.00 
freq.    1454.69  E(vib)   ...       0.00 
freq.    1463.16  E(vib)   ...       0.00 
freq.    1469.42  E(vib)   ...       0.00 
freq.    1469.55  E(vib)   ...       0.00 
freq.    1476.65  E(vib)   ...       0.00 
freq.    1478.24  E(vib)   ...       0.00 
freq.    1482.31  E(vib)   ...       0.00 
freq.    1483.54  E(vib)   ...       0.00 
freq.    1487.10  E(vib)   ...       0.00 
freq.    1494.68  E(vib)   ...       0.00 
freq.    1507.90  E(vib)   ...       0.00 
freq.    1514.74  E(vib)   ...       0.00 
freq.    1521.84  E(vib)   ...       0.00 
freq.    1525.45  E(vib)   ...       0.00 
freq.    1552.58  E(vib)   ...       0.00 
freq.    1596.83  E(vib)   ...       0.00 
freq.    1613.12  E(vib)   ...       0.00 
freq.    1639.92  E(vib)   ...       0.00 
freq.    1654.38  E(vib)   ...       0.00 
freq.    1719.40  E(vib)   ...       0.00 
freq.    3031.77  E(vib)   ...       0.00 
freq.    3036.29  E(vib)   ...       0.00 
freq.    3042.90  E(vib)   ...       0.00 
freq.    3043.10  E(vib)   ...       0.00 
freq.    3074.98  E(vib)   ...       0.00 
freq.    3086.25  E(vib)   ...       0.00 
freq.    3089.16  E(vib)   ...       0.00 
freq.    3098.15  E(vib)   ...       0.00 
freq.    3109.65  E(vib)   ...       0.00 
freq.    3111.17  E(vib)   ...       0.00 
freq.    3111.21  E(vib)   ...       0.00 
freq.    3113.66  E(vib)   ...       0.00 
freq.    3138.18  E(vib)   ...       0.00 
freq.    3152.73  E(vib)   ...       0.00 
freq.    3162.92  E(vib)   ...       0.00 
freq.    3189.06  E(vib)   ...       0.00 
freq.    3189.84  E(vib)   ...       0.00 
freq.    3192.85  E(vib)   ...       0.00 
freq.    3199.85  E(vib)   ...       0.00 
freq.    3202.00  E(vib)   ...       0.00 
freq.    3206.80  E(vib)   ...       0.00 
freq.    3209.38  E(vib)   ...       0.00 
freq.    3228.76  E(vib)   ...       0.00 
freq.    3240.22  E(vib)   ...       0.00 

------------
INNER ENERGY
------------

The inner energy is: U= E(el) + E(ZPE) + E(vib) + E(rot) + E(trans)
    E(el)   - is the total energy from the electronic structure calculation
              = E(kin-el) + E(nuc-el) + E(el-el) + E(nuc-nuc)
    E(ZPE)  - the the zero temperature vibrational energy from the frequency calculation
    E(vib)  - the the finite temperature correction to E(ZPE) due to population
              of excited vibrational states
    E(rot)  - is the rotational thermal energy
    E(trans)- is the translational thermal energy

Summary of contributions to the inner energy U:
Electronic energy                ...  -1604.00822260 Eh
Zero point energy                ...      0.41861743 Eh     262.69 kcal/mol
Thermal vibrational correction   ...      0.02528531 Eh      15.87 kcal/mol
Thermal rotational correction    ...      0.00141627 Eh       0.89 kcal/mol
Thermal translational correction ...      0.00141627 Eh       0.89 kcal/mol
-----------------------------------------------------------------------
Total thermal energy                  -1603.56148731 Eh


Summary of corrections to the electronic energy:
(perhaps to be used in another calculation)
Total thermal correction                  0.02811785 Eh      17.64 kcal/mol
Non-thermal (ZPE) correction              0.41861743 Eh     262.69 kcal/mol
-----------------------------------------------------------------------
Total correction                          0.44673528 Eh     280.33 kcal/mol


--------
ENTHALPY
--------

The enthalpy is H = U + kB*T
                kB is Boltzmann's constant
Total free energy                 ...  -1603.56148731 Eh 
Thermal Enthalpy correction       ...      0.00094421 Eh       0.59 kcal/mol
-----------------------------------------------------------------------
Total Enthalpy                    ...  -1603.56054310 Eh


Note: Only C1 symmetry has been detected, increase convergence thresholds 
      if your molecule has a higher symmetry. Symmetry factor of 1.0 is   
      used for the rotational entropy correction. 
 

Note: Rotational entropy computed according to Herzberg 
Infrared and Raman Spectra, Chapter V,1, Van Nostrand Reinhold, 1945 
Point Group:  C1, Symmetry Number:   1  
Rotational constants in cm-1:     0.006556     0.006078     0.004406 

Vibrational entropy computed according to the QRRHO of S. Grimme
Chem.Eur.J. 2012 18 9955


-------
ENTROPY
-------

The entropy contributions are T*S = T*(S(el)+S(vib)+S(rot)+S(trans))
     S(el)   - electronic entropy
     S(vib)  - vibrational entropy
     S(rot)  - rotational entropy
     S(trans)- translational entropy
The entropies will be listed as multiplied by the temperature to get
units of energy

Electronic entropy                ...      0.00000000 Eh      0.00 kcal/mol
Vibrational entropy               ...      0.04597669 Eh     28.85 kcal/mol
Rotational entropy                ...      0.01685434 Eh     10.58 kcal/mol
Translational entropy             ...      0.02084658 Eh     13.08 kcal/mol
-----------------------------------------------------------------------
Final entropy term                ...      0.08367761 Eh     52.51 kcal/mol

In case the symmetry of your molecule has not been determined correctly
or in case you have a reason to use a different symmetry number we print 
out the resulting rotational entropy values for sn=1,12 :
 --------------------------------------------------------
|  sn= 1 | S(rot)=       0.01685434 Eh     10.58 kcal/mol|
|  sn= 2 | S(rot)=       0.01619988 Eh     10.17 kcal/mol|
|  sn= 3 | S(rot)=       0.01581705 Eh      9.93 kcal/mol|
|  sn= 4 | S(rot)=       0.01554543 Eh      9.75 kcal/mol|
|  sn= 5 | S(rot)=       0.01533474 Eh      9.62 kcal/mol|
|  sn= 6 | S(rot)=       0.01516259 Eh      9.51 kcal/mol|
|  sn= 7 | S(rot)=       0.01501705 Eh      9.42 kcal/mol|
|  sn= 8 | S(rot)=       0.01489097 Eh      9.34 kcal/mol|
|  sn= 9 | S(rot)=       0.01477976 Eh      9.27 kcal/mol|
|  sn=10 | S(rot)=       0.01468028 Eh      9.21 kcal/mol|
|  sn=11 | S(rot)=       0.01459029 Eh      9.16 kcal/mol|
|  sn=12 | S(rot)=       0.01450814 Eh      9.10 kcal/mol|
 --------------------------------------------------------


-------------------
GIBBS FREE ENERGY
-------------------

The Gibbs free energy is G = H - T*S

Total enthalpy                    ...  -1603.56054310 Eh 
Total entropy correction          ...     -0.08367761 Eh    -52.51 kcal/mol
-----------------------------------------------------------------------
Final Gibbs free energy         ...  -1603.64422072 Eh

For completeness - the Gibbs free energy minus the electronic energy
G-E(el)                           ...      0.36400188 Eh    228.41 kcal/mol


Timings for individual modules:

Sum of individual times         ...    22636.366 sec (= 377.273 min)
GTO integral calculation        ...        9.715 sec (=   0.162 min)   0.0 %
SCF iterations                  ...     2024.150 sec (=  33.736 min)   8.9 %
SCF Gradient evaluation         ...      355.175 sec (=   5.920 min)   1.6 %
Geometry relaxation             ...        1.962 sec (=   0.033 min)   0.0 %
Analytical frequency calculation...    20245.364 sec (= 337.423 min)  89.4 %
                             ****ORCA TERMINATED NORMALLY****
TOTAL RUN TIME: 0 days 6 hours 17 minutes 22 seconds 60 msec
