
                                 *****************
                                 * O   R   C   A *
                                 *****************

                                            #,                                       
                                            ###                                      
                                            ####                                     
                                            #####                                    
                                            ######                                   
                                           ########,                                 
                                     ,,################,,,,,                         
                               ,,#################################,,                 
                          ,,##########################################,,             
                       ,#########################################, ''#####,          
                    ,#############################################,,   '####,        
                  ,##################################################,,,,####,       
                ,###########''''           ''''###############################       
              ,#####''   ,,,,##########,,,,          '''####'''          '####       
            ,##' ,,,,###########################,,,                        '##       
           ' ,,###''''                  '''############,,,                           
         ,,##''                                '''############,,,,        ,,,,,,###''
      ,#''                                            '''#######################'''  
     '                                                          ''''####''''         
             ,#######,   #######,   ,#######,      ##                                
            ,#'     '#,  ##    ##  ,#'     '#,    #''#        ,####,   ,####,        
            ##       ##  ##   ,#'  ##            #'  '#       #'       #'  '#        
            ##       ##  #######   ##           ,######,      #####,   #    #        
            '#,     ,#'  ##    ##  '#,     ,#' ,#      #,     #,   #   #,  ,#        
             '#######'   ##     ##  '#######'  #'      '#     '####' # '####'        



                #########################################################
                #                        -***-                          #
                #          Department of theory and spectroscopy        #
                #                                                       #
                #                      Frank Neese                      #
                #                                                       #
                #     Directorship, Architecture, Infrastructure        #
                #                    SHARK, DRIVERS                     #
                #        Core code/Algorithms in most modules           #
                #                                                       #
                #        Max Planck Institute fuer Kohlenforschung      #
                #                Kaiser Wilhelm Platz 1                 #
                #                 D-45470 Muelheim/Ruhr                 #
                #                      Germany                          #
                #                                                       #
                #                  All rights reserved                  #
                #                        -***-                          #
                #########################################################


                         Program Version 6.0.1  -  RELEASE   -


 With contributions from (in alphabetic order):
[Max-Planck-Institut fuer Kohlenforschung]                               
  Daniel Aravena         : Magnetic Suceptibility                        
  Michael Atanasov       : Ab Initio Ligand Field Theory (pilot matlab implementation)
  Alexander A. Auer      : GIAO ZORA, VPT2 properties, NMR spectrum      
  Ute Becker             : All parallelization in ORCA, NUMFREQ, NUMCALC 
  Giovanni Bistoni       : ED, misc. LED, open-shell LED, HFLD           
  Martin Brehm           : Molecular dynamics                            
  Dmytro Bykov           : pre 5.0 version of the SCF Hessian            
  Marcos Casanova-Páez   : Triplet and SCS-CIS(D). UHF-(DLPNO)-IP/EA/STEOM-CCSD. UHF-CVS-IP/STEOM-CCSD   
  Vijay G. Chilkuri      : MRCI spin determinant printing, contributions to CSF-ICE 
  Pauline Colinet        : FMM embedding                                 
  Dipayan Datta          : RHF DLPNO-CCSD density                        
  Achintya Kumar Dutta   : EOM-CC, STEOM-CC                              
  Nicolas Foglia         : Exact transition moments, OPA infrastructure, MCD improvements    
  Dmitry Ganyushin       : Spin-Orbit,Spin-Spin,Magnetic field MRCI      
  Miquel Garcia-Rates    : C-PCM and meta-GGA Hessian, CCSD/C-PCM, Gaussian charge scheme 
  Tiago L. C. Gouveia    : GS-ROHF, GS-ROCIS                             
  Yang Guo               : DLPNO-NEVPT2, F12-NEVPT2, CIM, IAO-localization        
  Andreas Hansen         : Spin unrestricted coupled pair/coupled cluster methods 
  Ingolf Harden          : AUTO-CI MPn and infrastructure                
  Benjamin Helmich-Paris : MC-RPA, TRAH-(SCF,CASSCF), AVAS, COSX integrals, SCF dyn. polar. 
  Lee Huntington         : MR-EOM, pCC                                   
  Robert Izsak           : Overlap fitted RIJCOSX, COSX-SCS-MP3, EOM     
  Riya Kayal             : Wick's Theorem for AUTO-CI, AUTO-CI UHF-CCSDT 
  Emily Kempfer          : AUTO-CI, RHF CISDT and CCSDT                  
  Christian Kollmar      : KDIIS, OOCD, Brueckner-CCSD(T), CCSD density, CASPT2, CASPT2-K, improved NEVPT2 
  Axel Koslowski         : Symmetry handling                             
  Simone Kossmann        : meta-GGA functionals, TD-DFT gradient, OOMP2, (MP2 Hessian; deprecated post 5.0) 
  Lucas Lang             : DCDCAS                                        
  Marvin Lechner         : AUTO-CI (C++ implementation), FIC-MRCC        
  Spencer Leger          : CASSCF response                               
  Dagmar Lenk            : GEPOL surface, SMD, ORCA-2-JSON               
  Dimitrios Liakos       : Extrapolation schemes; Compound Job, initial MDCI parallelization 
  Dimitrios Manganas     : Further ROCIS development; embedding schemes. LFT, Crystal Embedding 
  Dimitrios Pantazis     : SARC Basis sets                               
  Anastasios Papadopoulos: AUTO-CI, single reference methods and gradients 
  Taras Petrenko         : pre 6.0 DFT Hessian and TD-DFT gradient, (ASA, deprecated), ECA, 1-Electron XAS/XES, NRVS 
  Peter Pinski           : DLPNO-MP2, DLPNO-MP2 Gradient                 
  Christoph Reimann      : Effective Core Potentials                     
  Marius Retegan         : Local ZFS, SOC                                
  Christoph Riplinger    : Optimizer, TS searches, QM/MM, DLPNO-CCSD(T), (RO)-DLPNO pert. Triples 
  Michael Roemelt        : Original ROCIS implementation                 
  Masaaki Saitow         : Open-shell DLPNO-CCSD energy and density      
  Barbara Sandhoefer     : DKH picture change effects                    
  Kantharuban Sivalingam : CASSCF convergence/infrastructure, NEVPT2 and variants, FIC-MRCI 
  Bernardo de Souza      : ESD, SOC TD-DFT                               
  Georgi L. Stoychev     : AutoAux, RI-MP2 NMR, DLPNO-MP2 response, X2C  
  Van Anh Tran           : RI-MP2 g-tensors                              
  Willem Van den Heuvel  : Paramagnetic NMR                              
  Zikuan Wang            : NOTCH, Electric field optimization            
  Frank Wennmohs         : Technical directorship and infrastructure     
  Hang Xu                : AUTO-CI-Response properties                   
                                                                         
[FACCTs GmbH]                                                            
  Markus Bursch, Miquel Garcia-Rates, Christoph Riplinger, Bernardo de Souza, Georgi L. Stoychev 
                                                                 
  APM, Basis sets (HGBS, AHGBS, def-TZVP (Ac-Lr), def2-XVPD (La-Lu)), CI-OPT, improved COSX, DLPNO-Multilevel,           
  DOCKER, DRACO, updates on ESD, GOAT, IRC, LR-CPCM, MBIS, meta-GGA TD-DFT gradient, ML-optimized integration grids, 
  MM, NACMEs, nearIR, NEB, NEB-TS, NL-DFT gradient (VV10), 2- and 3-layer-ONIOM, interface openCOSMO-RS, QMMM,   
  Crystal-QMMM, SF, symmetry and pop. for TD-DFT, r2SCAN hybrids, SOLVATOR                                   
                                                                         
[Other institutions]                                                     
  V. Asgeirsson          : NEB                                           
  Christoph Bannwarth    : sTDA-DFT, sTD-DFT, PBEh-3c, B97-3c, D3        
  Sebastian Ehlert       : rSCAN, r2SCAN, r2SCAN-3c, D4, dhf basis sets  
  Marvin Friede          : D4 for Fr, Ra, Ac-Lr                          
  Lars Goerigk           : TD-DFT with DH, B97 family of functionals     
  Stefan Grimme          : VdW corrections, initial TS optimization, DFT functionals, gCP, sTDA/sTD-DF 
  Waldemar Hujo          : DFT-NL                                        
  H. Jonsson             : NEB                                           
  Holger Kruse           : gCP                                           
  Marcel Mueller         : wB97X-3c, vDZP basis set                      
  Hagen Neugebauer       : wr2SCAN                                       
  Tobias Risthaus        : range-separated hybrid DFT                    
  Lukas Wittmann         : regularized MP2, r2SCAN double-hybrids, wr2SCAN        
                                                                         
We gratefully acknowledge several colleagues who have allowed us to      
interface, adapt or use parts of their codes:                            
  Ed Valeev, F. Pavosevic, A. Kumar             : LibInt (2-el integral package), F12 methods 
  Garnet Chan, S. Sharma, J. Yang, R. Olivares  : DMRG                   
  Ulf Ekstrom                                   : XCFun DFT Library      
  Mihaly Kallay                                 : mrcc  (arbitrary order and MRCC methods)
  Frank Weinhold                                : gennbo (NPA and NBO analysis)           
  Simon Mueller                                 : openCOSMO-RS                            
  Christopher J. Cramer and Donald G. Truhlar   : smd solvation model                     
  S Lehtola, MJT Oliveira, MAL Marques          : LibXC Library                           
  Liviu Ungur et al                             : ANISO software                          


 Your calculation uses the libint2 library for the computation of 2-el integrals
 For citations please refer to: http://libint.valeyev.net

 Your ORCA version has been built with support for libXC version: 6.2.2
 For citations please refer to: https://libxc.gitlab.io

 This ORCA versions uses:
   CBLAS   interface :  Fast vector & matrix operations
   LAPACKE interface :  Fast linear algebra routines
   SCALAPACK package :  Parallel linear algebra routines
   Shared memory     :  Shared parallel matrices
   BLAS/LAPACK       :  OpenBLAS 0.3.27  USE64BITINT DYNAMIC_ARCH NO_AFFINITY Cooperlake SINGLE_THREADED
        Core in use  :  Cooperlake
   Copyright (c) 2011-2014, The OpenBLAS Project


Warning: RI is on but no J-basis has been assigned. Assigning Def2/J (nothing to worry about!)
================================================================================

----- Orbital basis set information -----
Your calculation utilizes the basis: 6-311G*
   H, Li - Ne  : R. Krishnan, J. S. Binkley, R. Seeger and J. A. Pople, J. Chem. Phys. 72, 650 (1980).
   Na - Ar     : A. D. McLean and G. S. Chandler J. Chem. Phys. 72, 5639, (1980).
   K  - Ca     : J.-P. Blaudeau, M. P. McGrath, L. A. Curtiss and L. Radom, J. Chem. Phys. 107, 5016 (1997).
   Ga - Kr     : L. A. Curtiss, M. P. McGrath, J.-P. Blandeau, N. E. Davis, R. C. Binning and L. Radom, J. Chem. Phys. 103, 6104 (1995).
   Pol./Diff.
   H, Li - Cl  : T. Clark, J. Chandrasekhar and P. v. R. Schleyer, J. Comp. Chem. 4, 294 (1983).
   H - Ne      : M. J. Frisch, J. A. Pople and J. S. Binkley, J. Chem. Phys. 80, 3265 (1984).

----- AuxJ basis set information -----
Your calculation utilizes the auxiliary basis: def2/J
   F. Weigend, Phys. Chem. Chem. Phys. 8, 1057 (2006).

================================================================================
                                        WARNINGS
                       Please study these warnings very carefully!
================================================================================

INFO   : Checking CIS options ...

WARNING: (CIS/TDDFT): Analytic excited state gradients requested
  ===> : turning on equilibrium dielectric conditions.

WARNING: Analytical Frequencies for this method not available!
  ===> : Switching to Numerical Frequencies!

WARNING: Geometry Optimization
  ===> : Switching off AutoStart
         For restart on a previous wavefunction, please use MOREAD

WARNING: CIS/ROCIS methods need fully converged wavefunctions
  ===> : Setting SCFConvForced true
         You can overwrite this default with %scf ConvForced false 


================================================================================
                                       INPUT FILE
================================================================================
NAME = 5.inp
|  1> ! B3LYP/G OPT FREQ 6-311G* CPCM(Water)
|  2> 
|  3> %tddft
|  4>     NRoots 3
|  5>     IRoot 1
|  6> end 
|  7> 
|  8> * xyz 1 1 
|  9> C  -3.46166682152925853089 -0.93042166845883023107 0.61748870045306814003
| 10> C  -3.76108454006642212164 -1.84079545928938093091 1.63221226749989734017
| 11> C  -2.98730665896191460718 -1.90858169048472192664 2.76415205531028540520
| 12> C  -2.44372720704463786134 -0.01893531544961479796 0.78468607659446654168
| 13> C  -1.70013293837695167454 0.00813538301306260259 1.99046697298728636483
| 14> O  -1.96896916859885640072 0.79786940703632414085 -0.21359198064352991064
| 15> C  -1.92203355592124736084 -1.01673673646829176853 2.94732429034334719731
| 16> C  -1.01628754288952327656 -1.16443438687311506818 4.03826801887009612102
| 17> C  0.10389470752963481104 -0.40964219995005968222 4.12639843920432980440
| 18> C  -0.66614414432906421393 0.95383052103060195215 2.24190382548949473929
| 19> C  0.32142596138921741833 0.66938452795672698237 3.22273069496516484378
| 20> N  -0.59530533209281322193 2.13991657936373469440 1.57846552644456661341
| 21> C  0.51560851324311052224 2.88735459360123991601 1.61758127825349573570
| 22> C  1.59284831097228174457 2.54491179148806478949 2.40735523437160070515
| 23> C  1.46011775116463793367 1.48116866987990003501 3.28211818241679642583
| 24> C  -2.70546389565186551351 1.10940631749414242435 -1.33531063877500688619
| 25> O  -3.92518953932576764032 1.13931675047019753677 -1.33884842366607781372
| 26> N  -1.92424642369647558304 1.39409704571961734487 -2.37245919856416520588
| 27> C  -0.47692001416417983961 1.38037175354231944624 -2.33120662847405757390
| 28> C  -2.50796396875972282814 1.88884270253319641597 -3.60075690621166799588
| 29> H  -3.58428391126916512377 1.98149847207602425314 -3.47269736822215691063
| 30> H  -2.30257711338566473103 1.19335630117761648528 -4.41520237115369251768
| 31> H  -2.08149899522469539193 2.86129780050974691363 -3.84488287163888564635
| 32> H  -0.12749011292179557309 0.72156469247070220696 -1.54225001398895411597
| 33> H  -0.09813675976356983632 2.38780259204671851947 -2.15809090270808967560
| 34> H  -0.11264044863032074417 1.01856140708729481226 -3.29114468022758988042
| 35> H  -3.17668565194638174987 -2.66215259625558609002 3.51161190369639353293
| 36> H  -4.02977703554956079302 -0.93866604780060192148 -0.29873495459110366301
| 37> H  -4.58366485558634551012 -2.52322729568691261903 1.48984812341196004581
| 38> H  -1.21710957662827001791 -1.94430950997153728643 4.75536073223541944088
| 39> H  0.84064603221636646779 -0.58861273980369532843 4.89252878127872481429
| 40> H  0.49595581834003499289 3.78885462600885336570 1.02367559198411250954
| 41> H  2.48473932217224824370 3.14852602358090338797 2.38849287127968645805
| 42> H  2.22244849181803960647 1.26731605384810985804 4.01519971300953493198
| 43> P  -2.06688450038424775812 3.03028596376686776281 1.16943467882991791740
| 44> O  -3.31832378056205667960 2.37484644849372594777 1.55689732070951469822
| 45> O  -1.78529166867905164651 3.42795071210395896344 -0.31759644257474028972
| 46> O  -1.82314814554427240267 4.38212015509753261000 1.96745765553176554796
| 47> C  -2.06928229959779219627 4.73447038010883503034 -0.86562036902097327928
| 48> C  -2.44078535470616353464 4.59071579799136930689 3.24212485199288913407
| 49> C  -0.84490581910815110156 5.62572623075266342596 -0.78859152873096560743
| 50> H  -2.91778502762551150695 5.17799372929979639935 -0.33988344859323948999
| 51> H  -2.35773817434916477254 4.54294545613075051449 -1.90080830783545140505
| 52> H  -1.05180274923232941475 6.55608826023920965298 -1.30958641813144271993
| 53> H  0.00322913974696370509 5.14078930572666958909 -1.26397205569925663582
| 54> H  -0.60546787309148764056 5.85214802907698494749 0.24675514804009934799
| 55> C  -1.70596405134988526875 3.85667705100357238734 4.34733269414745393533
| 56> H  -3.48168882600627282997 4.25807608274025994888 3.18891097888280583561
| 57> H  -2.40939055302431581751 5.67117678079217402143 3.39232857022403111458
| 58> H  -1.81749186494598236052 2.78152803672821091752 4.21810458915669261870
| 59> H  -2.13365864948174976945 4.13570327101008139437 5.30565978748909028440
| 60> H  -0.65130852060531430059 4.11894994896704336185 4.34120991749416340610
| 61> *
| 62> 
| 63>                          ****END OF INPUT****
================================================================================

                       *****************************
                       * Geometry Optimization Run *
                       *****************************

Geometry optimization settings:
Update method            Update   .... BFGS
Choice of coordinates    CoordSys .... (2022) Redundant Internals
Initial Hessian          InHess   .... Almloef's Model
Max. no of cycles        MaxIter  .... 156

Convergence Tolerances:
Energy Change            TolE     ....  5.0000e-06 Eh
Max. Gradient            TolMAXG  ....  3.0000e-04 Eh/bohr
RMS Gradient             TolRMSG  ....  1.0000e-04 Eh/bohr
Max. Displacement        TolMAXD  ....  4.0000e-03 bohr
RMS Displacement         TolRMSD  ....  2.0000e-03 bohr
Strict Convergence                .... False

------------------------------------------------------------------------------
                        ORCA OPTIMIZATION COORDINATE SETUP
------------------------------------------------------------------------------

The optimization will be done in redundant internal coordinates (2022)
Making redundant internal coordinates   ...  (2022 redundants) done
Evaluating the initial hessian          ...  (Almloef) done
Evaluating the coordinates              ...  done
Calculating the B-matrix                .... done
Calculating the G-matrix                .... done
Diagonalizing the G-matrix              .... done
Small eigenvalue found = 1.562e-03
Small eigenvalue found = 5.010e-03
Small eigenvalue found = 5.610e-03
Small eigenvalue found = 7.564e-03
Small eigenvalue found = 1.138e-02
Small eigenvalue found = 1.322e-02
Small eigenvalue found = 1.388e-02
Small eigenvalue found = 2.088e-02
Small eigenvalue found = 2.281e-02
Small eigenvalue found = 2.731e-02
The first mode is                       ....  109
The number of degrees of freedom        ....  150

    -----------------------------------------------------------------
                    Redundant Internal Coordinates


    -----------------------------------------------------------------
         Definition                    Initial Value    Approx d2E/dq
    -----------------------------------------------------------------
      1. B(C   1,C   0)                  1.3957         0.611755   
      2. B(C   2,C   1)                  1.3728         0.665518   
      3. B(C   3,C   0)                  1.3766         0.656379   
      4. B(C   4,C   3)                  1.4169         0.566030   
      5. B(O   5,C   3)                  1.3745         0.592486   
      6. B(C   6,C   4)                  1.4196         0.560482   
      7. B(C   6,C   2)                  1.4013         0.599309   
      8. B(C   7,C   6)                  1.4256         0.548193   
      9. B(C   8,C   7)                  1.3536         0.714136   
     10. B(C   9,C   4)                  1.4236         0.552205   
     11. B(C  10,C   9)                  1.4206         0.558278   
     12. B(C  10,C   8)                  1.4242         0.551109   
     13. B(N  11,C   9)                  1.3609         0.622801   
     14. B(C  12,N  11)                  1.3395         0.673608   
     15. B(C  13,C  12)                  1.3789         0.650722   
     16. B(C  14,C  13)                  1.3836         0.639636   
     17. B(C  14,C  10)                  1.3997         0.602941   
     18. B(C  15,O   5)                  1.3776         0.585716   
     19. B(O  16,C  15)                  1.2201         1.044586   
     20. B(N  17,C  15)                  1.3293         0.699400   
     21. B(C  18,N  17)                  1.4480         0.452244   
     22. B(C  19,N  17)                  1.4471         0.453641   
     23. B(H  20,C  19)                  1.0879         0.362936   
     24. B(H  21,C  19)                  1.0905         0.359429   
     25. B(H  22,C  19)                  1.0896         0.360684   
     26. B(H  23,C  18)                  1.0856         0.365935   
     27. B(H  24,C  18)                  1.0901         0.359941   
     28. B(H  25,C  18)                  1.0886         0.361934   
     29. B(H  26,C   2)                  1.0782         0.376108   
     30. B(H  27,C   0)                  1.0781         0.376202   
     31. B(H  28,C   1)                  1.0782         0.375987   
     32. B(H  29,C   7)                  1.0783         0.375899   
     33. B(H  30,C   8)                  1.0779         0.376519   
     34. B(H  31,C  12)                  1.0797         0.373948   
     35. B(H  32,C  13)                  1.0771         0.377556   
     36. B(H  33,C  14)                  1.0790         0.374919   
     37. B(P  34,N  11)                  1.7679         0.469236   
     38. B(O  35,P  34)                  1.4649         1.428656   
     39. B(O  36,P  34)                  1.5648         0.989553   
     40. B(O  37,P  34)                  1.5886         0.906753   
     41. B(C  38,O  36)                  1.4450         0.457251   
     42. B(C  39,O  37)                  1.4317         0.480116   
     43. B(C  40,C  38)                  1.5164         0.392761   
     44. B(H  41,C  38)                  1.0923         0.357100   
     45. B(H  42,H  22)                  2.5853         0.000284   
     46. B(H  42,C  38)                  1.0916         0.358043   
     47. B(H  43,C  40)                  1.0862         0.365171   
     48. B(H  44,C  40)                  1.0865         0.364759   
     49. B(H  45,C  40)                  1.0865         0.364724   
     50. B(C  46,C  39)                  1.5167         0.392337   
     51. B(H  47,C  39)                  1.0941         0.354773   
     52. B(H  48,C  39)                  1.0913         0.358380   
     53. B(H  49,C  46)                  1.0886         0.361936   
     54. B(H  50,C  46)                  1.0859         0.365571   
     55. B(H  51,C  46)                  1.0868         0.364365   
     56. A(C   1,C   0,C   3)          120.1465         0.437491   
     57. A(C   1,C   0,H  27)          119.9884         0.354729   
     58. A(C   3,C   0,H  27)          119.8649         0.358997   
     59. A(C   0,C   1,C   2)          120.7134         0.438583   
     60. A(C   0,C   1,H  28)          118.7168         0.354694   
     61. A(C   2,C   1,H  28)          120.5048         0.359808   
     62. A(C   1,C   2,H  26)          120.4735         0.359828   
     63. A(C   6,C   2,H  26)          119.1915         0.353480   
     64. A(C   1,C   2,C   6)          120.3198         0.436960   
     65. A(C   4,C   3,O   5)          115.1799         0.420818   
     66. A(C   0,C   3,O   5)          124.1044         0.432128   
     67. A(C   0,C   3,C   4)          120.2712         0.431417   
     68. A(C   6,C   4,C   9)          118.2991         0.417548   
     69. A(C   3,C   4,C   9)          122.9678         0.418282   
     70. A(C   3,C   4,C   6)          118.5411         0.419392   
     71. A(C   3,O   5,C  15)          122.7608         0.420644   
     72. A(C   4,C   6,C   7)          119.4260         0.417006   
     73. A(C   2,C   6,C   7)          121.1358         0.422017   
     74. A(C   2,C   6,C   4)          119.3534         0.423692   
     75. A(C   6,C   7,H  29)          117.7431         0.348164   
     76. A(C   6,C   7,C   8)          121.1866         0.435495   
     77. A(C   8,C   7,H  29)          120.9378         0.364150   
     78. A(C  10,C   8,H  30)          118.1909         0.348572   
     79. A(C   7,C   8,H  30)          121.2882         0.364253   
     80. A(C   7,C   8,C  10)          120.5020         0.435911   
     81. A(C   4,C   9,C  10)          119.5928         0.417255   
     82. A(C  10,C   9,N  11)          118.3531         0.423541   
     83. A(C   4,C   9,N  11)          122.0511         0.422714   
     84. A(C   9,C  10,C  14)          118.6006         0.423851   
     85. A(C   8,C  10,C  14)          122.4634         0.422873   
     86. A(C   8,C  10,C   9)          118.9211         0.417108   
     87. A(C   9,N  11,P  34)          120.5573         0.435605   
     88. A(C   9,N  11,C  12)          121.0146         0.435195   
     89. A(C  12,N  11,P  34)          114.5858         0.441812   
     90. A(N  11,C  12,H  31)          115.7678         0.357984   
     91. A(N  11,C  12,C  13)          121.7384         0.441549   
     92. A(C  13,C  12,H  31)          122.4527         0.358102   
     93. A(C  12,C  13,H  32)          119.8463         0.358688   
     94. A(C  12,C  13,C  14)          118.5608         0.440335   
     95. A(C  14,C  13,H  32)          121.4229         0.357641   
     96. A(C  10,C  14,H  33)          119.2513         0.353652   
     97. A(C  10,C  14,C  13)          119.8090         0.434322   
     98. A(C  13,C  14,H  33)          120.9395         0.357215   
     99. A(O  16,C  15,N  17)          125.4506         0.481507   
    100. A(O   5,C  15,N  17)          111.6876         0.433333   
    101. A(O   5,C  15,O  16)          122.8452         0.466061   
    102. A(C  18,N  17,C  19)          115.5056         0.383445   
    103. A(C  15,N  17,C  19)          119.8944         0.413983   
    104. A(C  15,N  17,C  18)          124.2753         0.413757   
    105. A(N  17,C  18,H  25)          108.2102         0.332979   
    106. A(H  23,C  18,H  24)          109.4854         0.291555   
    107. A(H  23,C  18,H  25)          109.3557         0.291808   
    108. A(N  17,C  18,H  24)          110.0644         0.332674   
    109. A(N  17,C  18,H  23)          110.3761         0.333587   
    110. A(H  24,C  18,H  25)          109.3239         0.291051   
    111. A(H  21,C  19,H  22)          109.1572         0.290828   
    112. A(H  20,C  19,H  22)          109.7316         0.291272   
    113. A(N  17,C  19,H  22)          109.7204         0.332958   
    114. A(H  20,C  19,H  21)          109.1825         0.291113   
    115. A(N  17,C  19,H  21)          109.8709         0.332766   
    116. A(N  17,C  19,H  20)          109.1646         0.333302   
    117. A(N  11,P  34,O  36)          101.4232         0.507217   
    118. A(N  11,P  34,O  35)          115.1229         0.543465   
    119. A(O  36,P  34,O  37)          103.5035         0.574464   
    120. A(O  35,P  34,O  37)          112.2688         0.616539   
    121. A(N  11,P  34,O  37)          100.6394         0.499027   
    122. A(O  35,P  34,O  36)          121.2513         0.627077   
    123. A(P  34,O  36,C  38)          123.6978         0.471653   
    124. A(P  34,O  37,C  39)          120.3336         0.468326   
    125. A(H  41,C  38,H  42)          108.8098         0.290197   
    126. A(C  40,C  38,H  42)          111.3877         0.326693   
    127. A(O  36,C  38,H  42)          104.6529         0.332990   
    128. A(C  40,C  38,H  41)          111.3537         0.326551   
    129. A(O  36,C  38,H  41)          109.7107         0.332845   
    130. A(O  36,C  38,C  40)          110.7003         0.377077   
    131. A(C  46,C  39,H  48)          111.4038         0.326686   
    132. A(O  37,C  39,H  48)          104.7369         0.335752   
    133. A(C  46,C  39,H  47)          110.4416         0.326142   
    134. A(O  37,C  39,H  47)          108.8347         0.335188   
    135. A(O  37,C  39,C  46)          111.6697         0.380205   
    136. A(H  47,C  39,H  48)          109.5778         0.289942   
    137. A(H  44,C  40,H  45)          109.7497         0.292013   
    138. A(H  43,C  40,H  45)          108.6956         0.292065   
    139. A(C  38,C  40,H  45)          110.4154         0.327690   
    140. A(H  43,C  40,H  44)          108.7308         0.292069   
    141. A(C  38,C  40,H  44)          110.2269         0.327695   
    142. A(C  38,C  40,H  43)          108.9818         0.327756   
    143. A(H  50,C  46,H  51)          108.9763         0.292070   
    144. A(H  49,C  46,H  51)          109.6998         0.291611   
    145. A(C  39,C  46,H  51)          110.4425         0.327578   
    146. A(H  49,C  46,H  50)          108.5534         0.291763   
    147. A(C  39,C  46,H  50)          109.1423         0.327757   
    148. A(C  39,C  46,H  49)          109.9900         0.327217   
    149. D(C   2,C   1,C   0,C   3)     -4.8798         0.025856   
    150. D(H  28,C   1,C   0,H  27)     -1.8182         0.025856   
    151. D(C   2,C   1,C   0,H  27)    175.2670         0.025856   
    152. D(H  28,C   1,C   0,C   3)    178.0349         0.025856   
    153. D(C   6,C   2,C   1,H  28)   -179.7799         0.030945   
    154. D(H  26,C   2,C   1,C   0)   -175.3815         0.030945   
    155. D(C   6,C   2,C   1,C   0)      3.1871         0.030945   
    156. D(H  26,C   2,C   1,H  28)      1.6515         0.030945   
    157. D(C   4,C   3,C   0,H  27)    179.3826         0.030039   
    158. D(O   5,C   3,C   0,C   1)    171.5014         0.030039   
    159. D(O   5,C   3,C   0,H  27)     -8.6453         0.030039   
    160. D(C   4,C   3,C   0,C   1)     -0.4708         0.030039   
    161. D(C   6,C   4,C   3,O   5)   -165.3985         0.021965   
    162. D(C   9,C   4,C   3,C   0)   -177.8653         0.021965   
    163. D(C   6,C   4,C   3,C   0)      7.2603         0.021965   
    164. D(C   9,C   4,C   3,O   5)      9.4759         0.021965   
    165. D(C  15,O   5,C   3,C   4)   -166.1717         0.025597   
    166. D(C  15,O   5,C   3,C   0)     21.4873         0.025597   
    167. D(C   7,C   6,C   4,C   9)     -7.2866         0.021520   
    168. D(C   2,C   6,C   4,C   9)    176.0248         0.021520   
    169. D(C   2,C   6,C   4,C   3)     -8.8585         0.021520   
    170. D(C   7,C   6,C   4,C   3)    167.8300         0.021520   
    171. D(C   7,C   6,C   2,H  26)      5.7064         0.024757   
    172. D(C   4,C   6,C   2,H  26)   -177.6634         0.024757   
    173. D(C   4,C   6,C   2,C   1)      3.7497         0.024757   
    174. D(C   7,C   6,C   2,C   1)   -172.8805         0.024757   
    175. D(H  29,C   7,C   6,C   4)    179.2974         0.020553   
    176. D(H  29,C   7,C   6,C   2)     -4.0747         0.020553   
    177. D(C   8,C   7,C   6,C   4)     -4.8497         0.020553   
    178. D(C   8,C   7,C   6,C   2)    171.7781         0.020553   
    179. D(C  10,C   8,C   7,C   6)      8.0376         0.036043   
    180. D(H  30,C   8,C   7,H  29)      2.1456         0.036043   
    181. D(H  30,C   8,C   7,C   6)   -173.5749         0.036043   
    182. D(C  10,C   8,C   7,H  29)   -176.2419         0.036043   
    183. D(N  11,C   9,C   4,C   6)   -163.1922         0.020866   
    184. D(N  11,C   9,C   4,C   3)     21.9216         0.020866   
    185. D(C  10,C   9,C   4,C   6)     16.1622         0.020866   
    186. D(C  10,C   9,C   4,C   3)   -158.7239         0.020866   
    187. D(C  14,C  10,C   9,N  11)    -12.4503         0.021344   
    188. D(C  14,C  10,C   9,C   4)    168.1714         0.021344   
    189. D(C   8,C  10,C   9,N  11)    166.1753         0.021344   
    190. D(C   8,C  10,C   9,C   4)    -13.2030         0.021344   
    191. D(C  14,C  10,C   8,H  30)      1.1435         0.020780   
    192. D(C  14,C  10,C   8,C   7)    179.5801         0.020780   
    193. D(C   9,C  10,C   8,H  30)   -177.4263         0.020780   
    194. D(C   9,C  10,C   8,C   7)      1.0103         0.020780   
    195. D(P  34,N  11,C   9,C  10)   -142.0722         0.031431   
    196. D(P  34,N  11,C   9,C   4)     37.2899         0.031431   
    197. D(C  12,N  11,C   9,C  10)     14.6646         0.031431   
    198. D(C  12,N  11,C   9,C   4)   -165.9733         0.031431   
    199. D(H  31,C  12,N  11,P  34)    -24.7375         0.037270   
    200. D(H  31,C  12,N  11,C   9)    177.2258         0.037270   
    201. D(C  13,C  12,N  11,P  34)    152.9851         0.037270   
    202. D(C  13,C  12,N  11,C   9)     -5.0515         0.037270   
    203. D(H  32,C  13,C  12,H  31)     -4.6423         0.029487   
    204. D(H  32,C  13,C  12,N  11)    177.7882         0.029487   
    205. D(C  14,C  13,C  12,H  31)    170.6868         0.029487   
    206. D(C  14,C  13,C  12,N  11)     -6.8827         0.029487   
    207. D(C  10,C  14,C  13,C  12)      8.6272         0.028424   
    208. D(H  33,C  14,C  10,C   9)   -179.2675         0.025075   
    209. D(H  33,C  14,C  10,C   8)      2.1583         0.025075   
    210. D(C  13,C  14,C  10,C   9)      0.9053         0.025075   
    211. D(C  13,C  14,C  10,C   8)   -177.6689         0.025075   
    212. D(H  33,C  14,C  13,H  32)      4.0552         0.028424   
    213. D(H  33,C  14,C  13,C  12)   -171.1971         0.028424   
    214. D(C  10,C  14,C  13,H  32)   -176.1206         0.028424   
    215. D(N  17,C  15,O   5,C   3)   -153.1201         0.024980   
    216. D(O  16,C  15,O   5,C   3)     28.2880         0.024980   
    217. D(C  19,N  17,C  15,O  16)      5.3482         0.040472   
    218. D(C  19,N  17,C  15,O   5)   -173.1996         0.040472   
    219. D(C  18,N  17,C  15,O  16)    178.5019         0.040472   
    220. D(C  18,N  17,C  15,O   5)     -0.0459         0.040472   
    221. D(H  25,C  18,N  17,C  15)    144.3043         0.017450   
    222. D(H  24,C  18,N  17,C  19)     77.1370         0.017450   
    223. D(H  24,C  18,N  17,C  15)    -96.2880         0.017450   
    224. D(H  23,C  18,N  17,C  19)   -161.9000         0.017450   
    225. D(H  23,C  18,N  17,C  15)     24.6750         0.017450   
    226. D(H  22,C  19,N  17,C  15)    121.6159         0.017559   
    227. D(H  21,C  19,N  17,C  18)     67.8968         0.017559   
    228. D(H  21,C  19,N  17,C  15)   -118.3689         0.017559   
    229. D(H  20,C  19,N  17,C  18)   -172.4012         0.017559   
    230. D(H  20,C  19,N  17,C  15)      1.3330         0.017559   
    231. D(O  37,P  34,N  11,C   9)    119.0451         0.004936   
    232. D(O  36,P  34,N  11,C  12)     67.1798         0.004936   
    233. D(O  36,P  34,N  11,C   9)   -134.6739         0.004936   
    234. D(O  35,P  34,N  11,C  12)   -160.0290         0.004936   
    235. D(O  35,P  34,N  11,C   9)     -1.8827         0.004936   
    236. D(C  38,O  36,P  34,O  37)    -33.0226         0.016810   
    237. D(C  38,O  36,P  34,O  35)     93.9622         0.016810   
    238. D(C  38,O  36,P  34,N  11)   -137.0411         0.016810   
    239. D(C  39,O  37,P  34,O  36)    156.3460         0.014180   
    240. D(C  39,O  37,P  34,O  35)     23.9011         0.014180   
    241. D(C  39,O  37,P  34,N  11)    -99.0368         0.014180   
    242. D(H  42,C  38,O  36,P  34)   -146.1800         0.016469   
    243. D(H  41,C  38,O  36,P  34)    -29.5849         0.016469   
    244. D(C  40,C  38,O  36,P  34)     93.7039         0.016469   
    245. D(H  48,C  39,O  37,P  34)   -160.6548         0.018184   
    246. D(H  47,C  39,O  37,P  34)    -43.5378         0.018184   
    247. D(C  46,C  39,O  37,P  34)     78.6440         0.018184   
    248. D(H  44,C  40,C  38,H  42)    -61.7869         0.012257   
    249. D(H  44,C  40,C  38,H  41)    176.5503         0.012257   
    250. D(H  44,C  40,C  38,O  36)     54.2159         0.012257   
    251. D(H  43,C  40,C  38,H  42)     57.4649         0.012257   
    252. D(H  43,C  40,C  38,H  41)    -64.1980         0.012257   
    253. D(H  43,C  40,C  38,O  36)    173.4677         0.012257   
    254. D(H  50,C  46,C  39,H  48)     56.5975         0.012231   
    255. D(H  50,C  46,C  39,H  47)    -65.4211         0.012231   
    256. D(H  50,C  46,C  39,O  37)    173.3250         0.012231   
    257. D(H  49,C  46,C  39,H  48)    175.5885         0.012231   
    258. D(H  49,C  46,C  39,H  47)     53.5700         0.012231   
    259. D(H  49,C  46,C  39,O  37)    -67.6840         0.012231   
    -----------------------------------------------------------------

Number of atoms                         .... 52
Number of degrees of freedom            .... 259


         *************************************************************
         *                GEOMETRY OPTIMIZATION CYCLE   1            *
         *************************************************************
---------------------------------
CARTESIAN COORDINATES (ANGSTROEM)
---------------------------------
  C     -3.461667   -0.930422    0.617489
  C     -3.761085   -1.840795    1.632212
  C     -2.987307   -1.908582    2.764152
  C     -2.443727   -0.018935    0.784686
  C     -1.700133    0.008135    1.990467
  O     -1.968969    0.797869   -0.213592
  C     -1.922034   -1.016737    2.947324
  C     -1.016288   -1.164434    4.038268
  C      0.103895   -0.409642    4.126398
  C     -0.666144    0.953831    2.241904
  C      0.321426    0.669385    3.222731
  N     -0.595305    2.139917    1.578466
  C      0.515609    2.887355    1.617581
  C      1.592848    2.544912    2.407355
  C      1.460118    1.481169    3.282118
  C     -2.705464    1.109406   -1.335311
  O     -3.925190    1.139317   -1.338848
  N     -1.924246    1.394097   -2.372459
  C     -0.476920    1.380372   -2.331207
  C     -2.507964    1.888843   -3.600757
  H     -3.584284    1.981498   -3.472697
  H     -2.302577    1.193356   -4.415202
  H     -2.081499    2.861298   -3.844883
  H     -0.127490    0.721565   -1.542250
  H     -0.098137    2.387803   -2.158091
  H     -0.112640    1.018561   -3.291145
  H     -3.176686   -2.662153    3.511612
  H     -4.029777   -0.938666   -0.298735
  H     -4.583665   -2.523227    1.489848
  H     -1.217110   -1.944310    4.755361
  H      0.840646   -0.588613    4.892529
  H      0.495956    3.788855    1.023676
  H      2.484739    3.148526    2.388493
  H      2.222448    1.267316    4.015200
  P     -2.066885    3.030286    1.169435
  O     -3.318324    2.374846    1.556897
  O     -1.785292    3.427951   -0.317596
  O     -1.823148    4.382120    1.967458
  C     -2.069282    4.734470   -0.865620
  C     -2.440785    4.590716    3.242125
  C     -0.844906    5.625726   -0.788592
  H     -2.917785    5.177994   -0.339883
  H     -2.357738    4.542945   -1.900808
  H     -1.051803    6.556088   -1.309586
  H      0.003229    5.140789   -1.263972
  H     -0.605468    5.852148    0.246755
  C     -1.705964    3.856677    4.347333
  H     -3.481689    4.258076    3.188911
  H     -2.409391    5.671177    3.392329
  H     -1.817492    2.781528    4.218105
  H     -2.133659    4.135703    5.305660
  H     -0.651309    4.118950    4.341210

----------------------------
CARTESIAN COORDINATES (A.U.)
----------------------------
  NO LB      ZA    FRAG     MASS         X           Y           Z
   0 C     6.0000    0    12.011   -6.541602   -1.758242    1.166885
   1 C     6.0000    0    12.011   -7.107420   -3.478599    3.084434
   2 C     6.0000    0    12.011   -5.645191   -3.606697    5.223490
   3 C     6.0000    0    12.011   -4.617975   -0.035783    1.482842
   4 C     6.0000    0    12.011   -3.212786    0.015374    3.761437
   5 O     8.0000    0    15.999   -3.720812    1.507755   -0.403630
   6 C     6.0000    0    12.011   -3.632117   -1.921354    5.569636
   7 C     6.0000    0    12.011   -1.920505   -2.200462    7.631221
   8 C     6.0000    0    12.011    0.196333   -0.774112    7.797763
   9 C     6.0000    0    12.011   -1.258830    1.802478    4.236584
  10 C     6.0000    0    12.011    0.607407    1.264953    6.090078
  11 N     7.0000    0    14.007   -1.124964    4.043856    2.982868
  12 C     6.0000    0    12.011    0.974359    5.456309    3.056786
  13 C     6.0000    0    12.011    3.010047    4.809186    4.549242
  14 C     6.0000    0    12.011    2.759223    2.799003    6.202305
  15 C     6.0000    0    12.011   -5.112586    2.096474   -2.523371
  16 O     8.0000    0    15.999   -7.417533    2.152997   -2.530057
  17 N     7.0000    0    14.007   -3.636299    2.634462   -4.483298
  18 C     6.0000    0    12.011   -0.901248    2.608525   -4.405342
  19 C     6.0000    0    12.011   -4.739365    3.569395   -6.804444
  20 H     1.0000    0     1.008   -6.773315    3.744489   -6.562447
  21 H     1.0000    0     1.008   -4.351240    2.255117   -8.343523
  22 H     1.0000    0     1.008   -3.933463    5.407069   -7.265776
  23 H     1.0000    0     1.008   -0.240921    1.363560   -2.914430
  24 H     1.0000    0     1.008   -0.185452    4.512293   -4.078201
  25 H     1.0000    0     1.008   -0.212860    1.924802   -6.219362
  26 H     1.0000    0     1.008   -6.003066   -5.030739    6.635985
  27 H     1.0000    0     1.008   -7.615175   -1.773822   -0.564527
  28 H     1.0000    0     1.008   -8.661871   -4.768209    2.815405
  29 H     1.0000    0     1.008   -2.300004   -3.674212    8.986329
  30 H     1.0000    0     1.008    1.588591   -1.112317    9.245539
  31 H     1.0000    0     1.008    0.937221    7.159898    1.934467
  32 H     1.0000    0     1.008    4.695477    5.949852    4.513597
  33 H     1.0000    0     1.008    4.199819    2.394880    7.587628
  34 P    15.0000    0    30.974   -3.905846    5.726411    2.209911
  35 O     8.0000    0    15.999   -6.270723    4.487809    2.942110
  36 O     8.0000    0    15.999   -3.373712    6.477888   -0.600170
  37 O     8.0000    0    15.999   -3.445251    8.281007    3.717956
  38 C     6.0000    0    12.011   -3.910377    8.946852   -1.635785
  39 C     6.0000    0    12.011   -4.612416    8.675196    6.126728
  40 C     6.0000    0    12.011   -1.596641   10.631082   -1.490222
  41 H     1.0000    0     1.008   -5.513815    9.784990   -0.642287
  42 H     1.0000    0     1.008   -4.455479    8.584923   -3.592007
  43 H     1.0000    0     1.008   -1.987619   12.389211   -2.474760
  44 H     1.0000    0     1.008    0.006102    9.714684   -2.388561
  45 H     1.0000    0     1.008   -1.144168   11.058957    0.466300
  46 C     6.0000    0    12.011   -3.223805    7.288063    8.215268
  47 H     1.0000    0     1.008   -6.579438    8.046598    6.026168
  48 H     1.0000    0     1.008   -4.553088   10.716971    6.410572
  49 H     1.0000    0     1.008   -3.434562    5.256326    7.971062
  50 H     1.0000    0     1.008   -4.032031    7.815347   10.026244
  51 H     1.0000    0     1.008   -1.230795    7.783687    8.203698

--------------------------------
INTERNAL COORDINATES (ANGSTROEM)
--------------------------------
 C      0   0   0     0.000000000000     0.00000000     0.00000000
 C      1   0   0     1.395741855332     0.00000000     0.00000000
 C      2   1   0     1.372812756954   120.71344766     0.00000000
 C      1   2   3     1.376576693486   120.14646865   355.12016782
 C      4   1   2     1.416888432170   120.27119708   359.52920673
 O      4   1   2     1.374454156859   124.10437479   171.50136485
 C      3   2   1     1.401337316192   120.31976434     3.18711835
 C      7   3   2     1.425604662896   121.13578035   187.11946506
 C      8   7   3     1.353619773268   121.18661519   171.77809962
 C      5   4   1     1.423619545765   122.96781826   182.13470470
 C     10   5   4     1.420642666039   119.59277416   201.27605185
 N     10   5   4     1.360870549219   122.05107271    21.92161427
 C     12  10   5     1.339523496967   121.01461416   194.02673142
 C     13  12  10     1.378932759888   121.73839888   354.94845523
 C     14  13  12     1.383610149409   118.56083544   353.11731839
 C      6   4   1     1.377582112818   122.76084477    21.48725820
 O     16   6   4     1.220097453386   122.84516415    28.28799099
 N     16   6   4     1.329295559422   111.68763017   206.87993192
 C     18  16   6     1.447979244987   124.27526756   359.95412516
 C     18  16   6     1.447140178408   119.89439810   186.80035662
 H     20  18  16     1.087864401267   109.16456452     1.33300024
 H     20  18  16     1.090507455360   109.87088548   241.63105924
 H     20  18  16     1.089558983364   109.72042265   121.61591501
 H     19  18  16     1.085624492695   110.37612537    24.67496817
 H     19  18  16     1.090120499161   110.06444525   263.71198532
 H     19  18  16     1.088617192530   108.21015805   144.30425037
 H      3   2   1     1.078160348908   120.47350717   184.61847951
 H      1   2   3     1.078092283215   119.98842593   175.26698390
 H      2   1   3     1.078248179378   118.71682630   182.91478118
 H      8   7   3     1.078311947641   117.74307031   355.92528201
 H      9   8   7     1.077863010596   121.28816761   186.42512769
 H     13  12  10     1.079727975479   115.76779570   177.22577756
 H     14  13  12     1.077114434861   119.84626246   177.78819088
 H     15  14  13     1.079022534531   120.93948287   188.80294864
 P     12  10   5     1.767939230724   120.55727008    37.28993130
 O     35  12  10     1.464864679418   115.12287823   358.11726717
 O     35  12  10     1.564830128469   101.42324262   225.32610999
 O     35  12  10     1.588616933960   100.63936680   119.04508742
 C     37  35  12     1.444982541518   123.69780759   222.95887988
 C     38  35  12     1.431699803070   120.33358229   260.96322758
 C     39  37  35     1.516366776054   110.70031191    93.70394463
 H     39  37  35     1.092277048303   109.71071106   330.41514078
 H     39  37  35     1.091559735814   104.65294531   213.81995238
 H     41  39  37     1.086193132176   108.98184881   173.46768862
 H     41  39  37     1.086500517766   110.22688033    54.21592437
 H     41  39  37     1.086526622706   110.41542247   292.78987149
 C     40  38  35     1.516660675400   111.66969504    78.64400705
 H     40  38  35     1.094057097696   108.83474200   316.46222469
 H     40  38  35     1.091303223627   104.73687166   199.34522856
 H     47  40  38     1.088615524059   109.98996314   292.31599567
 H     47  40  38     1.085895537589   109.14230086   173.32495761
 H     47  40  38     1.086794759801   110.44254520    53.54131302

---------------------------
INTERNAL COORDINATES (A.U.)
---------------------------
 C      0   0   0     0.000000000000     0.00000000     0.00000000
 C      1   0   0     2.637569860228     0.00000000     0.00000000
 C      2   1   0     2.594240143796   120.71344766     0.00000000
 C      1   2   3     2.601352953027   120.14646865   355.12016782
 C      4   1   2     2.677531099122   120.27119708   359.52920673
 O      4   1   2     2.597341940093   124.10437479   171.50136485
 C      3   2   1     2.648143748848   120.31976434     3.18711835
 C      7   3   2     2.694002388114   121.13578035   187.11946506
 C      8   7   3     2.557970660937   121.18661519   171.77809962
 C      5   4   1     2.690251060392   122.96781826   182.13470470
 C     10   5   4     2.684625572977   119.59277416   201.27605185
 N     10   5   4     2.571672641742   122.05107271    21.92161427
 C     12  10   5     2.531332559220   121.01461416   194.02673142
 C     13  12  10     2.605805273281   121.73839888   354.94845523
 C     14  13  12     2.614644258497   118.56083544   353.11731839
 C      6   4   1     2.603252920214   122.76084477    21.48725820
 O     16   6   4     2.305650043594   122.84516415    28.28799099
 N     16   6   4     2.512004558345   111.68763017   206.87993192
 C     18  16   6     2.736284220628   124.27526756   359.95412516
 C     18  16   6     2.734698614585   119.89439810   186.80035662
 H     20  18  16     2.055765789236   109.16456452     1.33300024
 H     20  18  16     2.060760437630   109.87088548   241.63105924
 H     20  18  16     2.058968085311   109.72042265   121.61591501
 H     19  18  16     2.051532975471   110.37612537    24.67496817
 H     19  18  16     2.060029196388   110.06444525   263.71198532
 H     19  18  16     2.057188358560   108.21015805   144.30425037
 H      3   2   1     2.037427787889   120.47350717   184.61847951
 H      1   2   3     2.037299162370   119.98842593   175.26698390
 H      2   1   3     2.037593763423   118.71682630   182.91478118
 H      8   7   3     2.037714267976   117.74307031   355.92528201
 H      9   8   7     2.036865899910   121.28816761   186.42512769
 H     13  12  10     2.040390172788   115.76779570   177.22577756
 H     14  13  12     2.035451296780   119.84626246   177.78819088
 H     15  14  13     2.039057082593   120.93948287   188.80294864
 P     12  10   5     3.340920967483   120.55727008    37.28993130
 O     35  12  10     2.768193067354   115.12287823   358.11726717
 O     35  12  10     2.957100388915   101.42324262   225.32610999
 O     35  12  10     3.002050936895   100.63936680   119.04508742
 C     37  35  12     2.730621271766   123.69780759   222.95887988
 C     38  35  12     2.705520533791   120.33358229   260.96322758
 C     39  37  35     2.865517925319   110.70031191    93.70394463
 H     39  37  35     2.064104483660   109.71071106   330.41514078
 H     39  37  35     2.062748959504   104.65294531   213.81995238
 H     41  39  37     2.052607548359   108.98184881   173.46768862
 H     41  39  37     2.053188422942   110.22688033    54.21592437
 H     41  39  37     2.053237754130   110.41542247   292.78987149
 C     40  38  35     2.866073314595   111.66969504    78.64400705
 H     40  38  35     2.067468289518   108.83474200   316.46222469
 H     40  38  35     2.062264221720   104.73687166   199.34522856
 H     47  40  38     2.057185205607   109.98996314   292.31599567
 H     47  40  38     2.052045176090   109.14230086   173.32495761
 H     47  40  38     2.053744459804   110.44254520    53.54131302

---------------------
BASIS SET INFORMATION
---------------------
There are 5 groups of distinct atoms

 Group   1 Type C   : 11s5p1d contracted to 4s3p1d pattern {6311/311/1}
 Group   2 Type O   : 11s5p1d contracted to 4s3p1d pattern {6311/311/1}
 Group   3 Type N   : 11s5p1d contracted to 4s3p1d pattern {6311/311/1}
 Group   4 Type H   : 5s contracted to 3s pattern {311}
 Group   5 Type P   : 13s9p1d contracted to 6s5p1d pattern {631111/42111/1}

Atom   0C    basis set group =>   1
Atom   1C    basis set group =>   1
Atom   2C    basis set group =>   1
Atom   3C    basis set group =>   1
Atom   4C    basis set group =>   1
Atom   5O    basis set group =>   2
Atom   6C    basis set group =>   1
Atom   7C    basis set group =>   1
Atom   8C    basis set group =>   1
Atom   9C    basis set group =>   1
Atom  10C    basis set group =>   1
Atom  11N    basis set group =>   3
Atom  12C    basis set group =>   1
Atom  13C    basis set group =>   1
Atom  14C    basis set group =>   1
Atom  15C    basis set group =>   1
Atom  16O    basis set group =>   2
Atom  17N    basis set group =>   3
Atom  18C    basis set group =>   1
Atom  19C    basis set group =>   1
Atom  20H    basis set group =>   4
Atom  21H    basis set group =>   4
Atom  22H    basis set group =>   4
Atom  23H    basis set group =>   4
Atom  24H    basis set group =>   4
Atom  25H    basis set group =>   4
Atom  26H    basis set group =>   4
Atom  27H    basis set group =>   4
Atom  28H    basis set group =>   4
Atom  29H    basis set group =>   4
Atom  30H    basis set group =>   4
Atom  31H    basis set group =>   4
Atom  32H    basis set group =>   4
Atom  33H    basis set group =>   4
Atom  34P    basis set group =>   5
Atom  35O    basis set group =>   2
Atom  36O    basis set group =>   2
Atom  37O    basis set group =>   2
Atom  38C    basis set group =>   1
Atom  39C    basis set group =>   1
Atom  40C    basis set group =>   1
Atom  41H    basis set group =>   4
Atom  42H    basis set group =>   4
Atom  43H    basis set group =>   4
Atom  44H    basis set group =>   4
Atom  45H    basis set group =>   4
Atom  46C    basis set group =>   1
Atom  47H    basis set group =>   4
Atom  48H    basis set group =>   4
Atom  49H    basis set group =>   4
Atom  50H    basis set group =>   4
Atom  51H    basis set group =>   4
---------------------------------
AUXILIARY/J BASIS SET INFORMATION
---------------------------------
There are 5 groups of distinct atoms

 Group   1 Type C   : 12s5p4d2f1g contracted to 6s4p3d1f1g pattern {711111/2111/211/2/1}
 Group   2 Type O   : 12s5p4d2f1g contracted to 6s4p3d1f1g pattern {711111/2111/211/2/1}
 Group   3 Type N   : 12s5p4d2f1g contracted to 6s4p3d1f1g pattern {711111/2111/211/2/1}
 Group   4 Type H   : 5s2p1d contracted to 3s1p1d pattern {311/2/1}
 Group   5 Type P   : 14s5p5d2f1g contracted to 8s4p3d1f1g pattern {71111111/2111/311/2/1}

Atom   0C    basis set group =>   1
Atom   1C    basis set group =>   1
Atom   2C    basis set group =>   1
Atom   3C    basis set group =>   1
Atom   4C    basis set group =>   1
Atom   5O    basis set group =>   2
Atom   6C    basis set group =>   1
Atom   7C    basis set group =>   1
Atom   8C    basis set group =>   1
Atom   9C    basis set group =>   1
Atom  10C    basis set group =>   1
Atom  11N    basis set group =>   3
Atom  12C    basis set group =>   1
Atom  13C    basis set group =>   1
Atom  14C    basis set group =>   1
Atom  15C    basis set group =>   1
Atom  16O    basis set group =>   2
Atom  17N    basis set group =>   3
Atom  18C    basis set group =>   1
Atom  19C    basis set group =>   1
Atom  20H    basis set group =>   4
Atom  21H    basis set group =>   4
Atom  22H    basis set group =>   4
Atom  23H    basis set group =>   4
Atom  24H    basis set group =>   4
Atom  25H    basis set group =>   4
Atom  26H    basis set group =>   4
Atom  27H    basis set group =>   4
Atom  28H    basis set group =>   4
Atom  29H    basis set group =>   4
Atom  30H    basis set group =>   4
Atom  31H    basis set group =>   4
Atom  32H    basis set group =>   4
Atom  33H    basis set group =>   4
Atom  34P    basis set group =>   5
Atom  35O    basis set group =>   2
Atom  36O    basis set group =>   2
Atom  37O    basis set group =>   2
Atom  38C    basis set group =>   1
Atom  39C    basis set group =>   1
Atom  40C    basis set group =>   1
Atom  41H    basis set group =>   4
Atom  42H    basis set group =>   4
Atom  43H    basis set group =>   4
Atom  44H    basis set group =>   4
Atom  45H    basis set group =>   4
Atom  46C    basis set group =>   1
Atom  47H    basis set group =>   4
Atom  48H    basis set group =>   4
Atom  49H    basis set group =>   4
Atom  50H    basis set group =>   4
Atom  51H    basis set group =>   4
------------------------------------------------------------------------------
                             ORCA STARTUP CALCULATIONS
                           -- RI-GTO INTEGRALS CHOSEN --
------------------------------------------------------------------------------
------------------------------------------------------------------------------
                   ___                                                        
                  /   \      - P O W E R E D   B Y -                         
                 /     \                                                     
                 |  |  |   _    _      __       _____    __    __             
                 |  |  |  | |  | |    /  \     |  _  \  |  |  /  |          
                  \  \/   | |  | |   /    \    | | | |  |  | /  /          
                 / \  \   | |__| |  /  /\  \   | |_| |  |  |/  /          
                |  |  |   |  __  | /  /__\  \  |    /   |      \           
                |  |  |   | |  | | |   __   |  |    \   |  |\   \          
                \     /   | |  | | |  |  |  |  | |\  \  |  | \   \       
                 \___/    |_|  |_| |__|  |__|  |_| \__\ |__|  \__/        
                                                                              
                      - O R C A' S   B I G   F R I E N D -                    
                                      &                                       
                       - I N T E G R A L  F E E D E R -                       
                                                                              
 v1 FN, 2020, v2 2021, v3 2022-2024                                           
------------------------------------------------------------------------------


----------------------
SHARK INTEGRAL PACKAGE
----------------------

Number of atoms                             ...     52
Number of basis functions                   ...    584
Number of shells                            ...    300
Maximum angular momentum                    ...      2
Integral batch strategy                     ... SHARK/LIBINT Hybrid
RI-J (if used) integral strategy            ... SPLIT-RIJ (Revised 2003 algorithm where possible)
Printlevel                                  ...      1
Contraction scheme used                     ... SEGMENTED contraction
Prescreening option                         ... SCHWARTZ
   Thresh                                   ... 2.500e-11
   Tcut                                     ... 2.500e-12
   Tpresel                                  ... 2.500e-12 
Coulomb Range Separation                    ... NOT USED
Exchange Range Separation                   ... NOT USED
Multipole approximations                    ... NOT USED
Finite Nucleus Model                        ... NOT USED
CABS basis                                  ... NOT available
Auxiliary Coulomb fitting basis             ... AVAILABLE
   # of basis functions in Aux-J            ...   1638
   # of shells in Aux-J                     ...    542
   Maximum angular momentum in Aux-J        ...      4
Auxiliary J/K fitting basis                 ... NOT available
Auxiliary Correlation fitting basis         ... NOT available
Auxiliary 'external' fitting basis          ... NOT available

Checking pre-screening integrals            ... done (  0.0 sec) Dimension = 300
Check shell pair data                       ... done (  0.0 sec)
Shell pair information
Shell pair cut-off parameter TPreSel        ...   2.5e-12
Total number of shell pairs                 ...     45150
Shell pairs after pre-screening             ...     30779
Total number of primitive shell pairs       ...    182167
Primitive shell pairs kept                  ...     71970
          la=0 lb=0:  11116 shell pairs
          la=1 lb=0:  11385 shell pairs
          la=1 lb=1:   2943 shell pairs
          la=2 lb=0:   3287 shell pairs
          la=2 lb=1:   1770 shell pairs
          la=2 lb=2:    278 shell pairs

Calculating one electron integrals          ... done (  0.1 sec)
Calculating RI/J V-Matrix + Cholesky decomp.... done (  0.5 sec)
Calculating Nuclear repulsion               ... done (  0.0 sec) ENN=   3216.155193041461 Eh

Diagonalization of the overlap matrix:
Smallest eigenvalue                        ... 8.505e-05
Time for diagonalization                   ...    0.026 sec
Threshold for overlap eigenvalues          ... 1.000e-07
Number of eigenvalues below threshold      ... 0
Time for construction of square roots      ...    0.042 sec
Total time needed                          ...    0.078 sec

-------------------
DFT GRID GENERATION
-------------------

General Integration Accuracy     IntAcc      ... 4.388
Radial Grid Type                 RadialGrid  ... OptM3 with GC (2021)
Angular Grid (max. ang.)         AngularGrid ... 4 (Lebedev-302)
Angular grid pruning method      GridPruning ... 4 (adaptive)
Weight generation scheme         WeightScheme... mBecke (2022)
Basis function cutoff            BFCut       ... 1.0000e-11
Integration weight cutoff        WCut        ... 1.0000e-14
Partially contracted basis set               ... off
Rotationally invariant grid construction     ... off
Angular grids for H and He will be reduced by one unit

Total number of grid points                  ...   243756
Total number of batches                      ...     3835
Average number of points per batch           ...       63
Average number of grid points per atom       ...     4688

--------------------
COSX GRID GENERATION
--------------------

GRIDX 1
-------
General Integration Accuracy     IntAcc      ... 3.816
Radial Grid Type                 RadialGrid  ... OptM3 with GC (2021)
Angular Grid (max. ang.)         AngularGrid ... 1 (Lebedev-50)
Angular grid pruning method      GridPruning ... 4 (adaptive)
Weight generation scheme         WeightScheme... mBecke (2022)
Basis function cutoff            BFCut       ... 1.0000e-11
Integration weight cutoff        WCut        ... 1.0000e-14
Partially contracted basis set               ... on
Rotationally invariant grid construction     ... off
Angular grids for H and He will be reduced by one unit

Total number of grid points                  ...    31901
Total number of batches                      ...      276
Average number of points per batch           ...      115
Average number of grid points per atom       ...      613
UseSFitting                                  ... on

GRIDX 2
-------
General Integration Accuracy     IntAcc      ... 4.020
Radial Grid Type                 RadialGrid  ... OptM3 with GC (2021)
Angular Grid (max. ang.)         AngularGrid ... 2 (Lebedev-110)
Angular grid pruning method      GridPruning ... 4 (adaptive)
Weight generation scheme         WeightScheme... mBecke (2022)
Basis function cutoff            BFCut       ... 1.0000e-11
Integration weight cutoff        WCut        ... 1.0000e-14
Partially contracted basis set               ... on
Rotationally invariant grid construction     ... off
Angular grids for H and He will be reduced by one unit

Total number of grid points                  ...    66149
Total number of batches                      ...      546
Average number of points per batch           ...      121
Average number of grid points per atom       ...     1272
UseSFitting                                  ... on

GRIDX 3
-------
General Integration Accuracy     IntAcc      ... 4.338
Radial Grid Type                 RadialGrid  ... OptM3 with GC (2021)
Angular Grid (max. ang.)         AngularGrid ... 3 (Lebedev-194)
Angular grid pruning method      GridPruning ... 4 (adaptive)
Weight generation scheme         WeightScheme... mBecke (2022)
Basis function cutoff            BFCut       ... 1.0000e-11
Integration weight cutoff        WCut        ... 1.0000e-14
Partially contracted basis set               ... on
Rotationally invariant grid construction     ... off
Angular grids for H and He will be reduced by one unit

Total number of grid points                  ...   144563
Total number of batches                      ...     1155
Average number of points per batch           ...      125
Average number of grid points per atom       ...     2780
UseSFitting                                  ... on
Initializing property integral containers    ... done (  0.0 sec)

SHARK setup successfully completed in   7.3 seconds

Maximum memory used throughout the entire STARTUP-calculation: 130.8 MB
-------------------------------------------------------------------------------
                                 ORCA GUESS
                   Start orbitals & Density for SCF / CASSCF
-------------------------------------------------------------------------------

------------
SCF SETTINGS
------------
Hamiltonian:
 Density Functional     Method          .... DFT(GTOs)
 Exchange Functional    Exchange        .... B88
   X-Alpha parameter    XAlpha          ....  0.666667
   Becke's b parameter  XBeta           ....  0.004200
 Correlation Functional Correlation     .... LYP
 LDA part of GGA corr.  LDAOpt          .... VWN-3
 Gradients option       PostSCFGGA      .... off
 Hybrid DFT is turned on
   Fraction HF Exchange ScalHFX         ....  0.200000
   Scaling of DF-GGA-X  ScalDFX         ....  0.720000
   Scaling of DF-GGA-C  ScalDFC         ....  0.810000
   Scaling of DF-LDA-C  ScalLDAC        ....  1.000000
   Perturbative correction              ....  0.000000
   NL short-range parameter             ....  4.800000
 RI-approximation to the Coulomb term is turned on
   Number of AuxJ basis functions       .... 1638
   RIJ-COSX (HFX calculated with COS-X)).... on


General Settings:
 Integral files         IntName         .... 5
 Hartree-Fock type      HFTyp           .... RHF
 Total Charge           Charge          ....    1
 Multiplicity           Mult            ....    1
 Number of Electrons    NEL             ....  212
 Basis Dimension        Dim             ....  584
 Nuclear Repulsion      ENuc            ....   3216.1551930415 Eh

Convergence Acceleration:
 AO-DIIS                CNVDIIS         .... on
   Start iteration      DIISMaxIt       ....    12
   Startup error        DIISStart       ....  0.200000
   # of expansion vecs  DIISMaxEq       ....     5
   Bias factor          DIISBfac        ....   1.050
   Max. coefficient     DIISMaxC        ....  10.000
 MO-DIIS                CNVKDIIS        .... off
 Trust-Rad. Augm. Hess. CNVTRAH         .... auto
   Auto Start mean grad. ratio tolernc. ....  1.125000
   Auto Start start iteration           ....    50
   Auto Start num. interpolation iter.  ....    10
   Max. Number of Micro iterations      ....    24
   Max. Number of Macro iterations      .... Maxiter - #DIIS iter
   Number of Davidson start vectors     ....     2
   Converg. threshold    (grad. norm)   ....   1.000e-05
   Grad. Scal. Fac. for Micro threshold ....   0.100
   Minimum threshold for Micro iter.    ....   1.000e-02
   NR start threshold (gradient norm)   ....   1.000e-04
   Initial trust radius                 ....   0.400
   Minimum AH scaling param. (alpha)    ....   1.000
   Maximum AH scaling param. (alpha)    .... 1000.000
   Quad. conv. algorithm                .... NR
   White noise on init. David. guess    .... on
   Maximum white noise                  ....   0.010
   Pseudo random numbers                .... off
   Inactive MOs                         .... canonical
   Orbital update algorithm             .... Taylor
   Preconditioner                       .... Diag
   Full preconditioner red. dimension   ....   250
 SOSCF                  CNVSOSCF        .... on
   Start iteration      SOSCFMaxIt      ....   150
   Startup grad/error   SOSCFStart      ....  0.003300
   Hessian update       SOSCFHessUp     .... L-BFGS
 Level Shifting         CNVShift        .... on
   Level shift para.    LevelShift      ....    0.2500
   Turn off err/grad.   ShiftErr        ....    0.0010
 Zerner damping         CNVZerner       .... off
 Static damping         CNVDamp         .... on
   Fraction old density DampFac         ....    0.7000
   Max. Damping (<1)    DampMax         ....    0.9800
   Min. Damping (>=0)   DampMin         ....    0.0000
   Turn off err/grad.   DampErr         ....    0.1000

SCF Procedure:
 Maximum # iterations   MaxIter         ....   125
 SCF integral mode      SCFMode         .... Direct
   Integral package                     .... SHARK and LIBINT hybrid scheme
 Reset frequency        DirectResetFreq ....    20
 Integral Threshold     Thresh          ....  2.500e-11 Eh
 Primitive CutOff       TCut            ....  2.500e-12 Eh

Convergence Tolerance:
 Convergence Check Mode ConvCheckMode   .... Total+1el-Energy
 Convergence forced     ConvForced      .... 1
 Energy Change          TolE            ....  1.000e-08 Eh
 1-El. energy change                    ....  1.000e-05 Eh
 Orbital Gradient       TolG            ....  1.000e-05
 Orbital Rotation angle TolX            ....  1.000e-05
 DIIS Error             TolErr          ....  5.000e-07

------------------------------
INITIAL GUESS: MODEL POTENTIAL
------------------------------
Loading Hartree-Fock densities                     ... done
Calculating cut-offs                               ... done
Initializing the effective Hamiltonian             ... done
Setting up the integral package (SHARK)            ... done
Starting the Coulomb interaction                   ... done (   1.4 sec)
Making the grid                                    ... done (   0.7 sec)
Mapping shells                                     ... done
Starting the XC term evaluation                    ... done (   0.6 sec)
  promolecular density results
     # of electrons  =    213.011567459
     EX              =   -187.066195170
     EC              =     -7.428278816
     EX+EC           =   -194.494473986
Transforming the Hamiltonian                       ... done (   0.0 sec)
Diagonalizing the Hamiltonian                      ... done (   0.0 sec)
Back transforming the eigenvectors                 ... done (   0.0 sec)
Now organizing SCF variables                       ... done
                      ------------------
                      INITIAL GUESS DONE (   2.8 sec)
                      ------------------
             **** ENERGY FILE WAS UPDATED (5.en.tmp) ****
Finished Guess after   3.1 sec
Maximum memory used throughout the entire GUESS-calculation: 82.0 MB

-------------------------------------------------------------------------------------------
                                      ORCA LEAN-SCF
                              memory conserving SCF solver
-------------------------------------------------------------------------------------------

--------------------
CPCM SOLVATION MODEL
--------------------
CPCM parameters:
  Epsilon                                         ...      80.1510
  Refrac                                          ...       1.3328
  Rsolv                                           ...       1.3000
  Surface type                                    ... GAUSSIAN VDW
  Discretization scheme                           ... Constant charge density
    Threshold for H atoms                         ...       5.0000 (charges/Ang^2)
    Threshold for non-H atoms                     ...       5.0000 (charges/Ang^2)
  Epsilon function type                           ...         CPCM
Solvent:                                          ... WATER
Radii:
  Scheme                                          ... Element-dependent radii
  Radius for C  used is    3.8550 Bohr (=   2.0400 Ang.)
  Radius for O  used is    3.4469 Bohr (=   1.8240 Ang.)
  Radius for N  used is    3.5149 Bohr (=   1.8600 Ang.)
  Radius for H  used is    2.4944 Bohr (=   1.3200 Ang.)
  Radius for P  used is    4.0818 Bohr (=   2.1600 Ang.)
Calculating surface                               ...        done! (  0.0s)
Cavity surface points                             ...         4205
Cavity Volume                                     ...    3026.9351
Cavity Surface-area                               ...    1444.9341
Calculating surface distance matrix               ...        done! (  0.1s)
Performing Cholesky decomposition & store         ...        done! (  2.5s)
Overall time for CPCM initialization              ...                 2.6s

----------------------------------------D-I-I-S--------------------------------------------
Iteration    Energy (Eh)           Delta-E    RMSDP     MaxDP     DIISErr   Damp  Time(sec)
-------------------------------------------------------------------------------------------
               ***  Starting incremental Fock matrix formation  ***
    1    -1602.9666140750332488     0.00e+00  1.74e-03  1.20e-01  4.15e-01  0.700  36.1
    2    -1603.3620710251752826    -3.95e-01  1.07e-03  5.41e-02  1.39e-01  0.700  19.2
                               ***Turning on AO-DIIS***
    3    -1603.5065092237600766    -1.44e-01  3.94e-04  1.46e-02  4.62e-02  0.700  18.5
    4    -1603.5977575321930999    -9.12e-02  6.78e-04  2.66e-02  2.26e-02  0.000  17.1
    5    -1603.8007112152536138    -2.03e-01  1.49e-04  6.52e-03  6.86e-03  0.000  18.2
                              *** Initializing SOSCF ***
---------------------------------------S-O-S-C-F--------------------------------------
Iteration    Energy (Eh)           Delta-E    RMSDP     MaxDP     MaxGrad    Time(sec)
--------------------------------------------------------------------------------------
    6    -1603.8017084057546526    -9.97e-04  4.53e-05  1.34e-03  2.00e-03    15.9
               *** Restarting incremental Fock matrix formation ***
    7    -1603.8017433818649806    -3.50e-05  3.58e-05  1.41e-03  3.97e-04    37.8
    8    -1603.8017237381700397     1.96e-05  2.01e-05  8.86e-04  8.50e-04    23.0
    9    -1603.8017592119213077    -3.55e-05  2.73e-06  1.03e-04  2.42e-05    21.2
   10    -1603.8017591472171262     6.47e-08  1.27e-06  7.26e-05  3.22e-05    16.5
   11    -1603.8017593267140910    -1.79e-07  8.76e-07  3.37e-05  1.03e-05    14.9
   12    -1603.8017593016047613     2.51e-08  4.33e-07  1.85e-05  8.92e-06    13.8
   13    -1603.8017593350541574    -3.34e-08  1.49e-07  5.38e-06  1.25e-06    12.4
                  *** Gradient check signals convergence ***

               *****************************************************
               *                     SUCCESS                       *
               *           SCF CONVERGED AFTER  13 CYCLES          *
               *****************************************************

Recomputing exchange energy using gridx3       ... done (   57.315 sec)
Old exchange energy                            :    -37.912268540 Eh
New exchange energy                            :    -37.912191980 Eh
Exchange energy change after final integration :      0.000076559 Eh
Total energy after final integration           :  -1603.801682776 Eh
             **** ENERGY FILE WAS UPDATED (5.en.tmp) ****

----------------
TOTAL SCF ENERGY
----------------

Total Energy       :      -1603.80168277594657 Eh          -43641.66249 eV

Components:
Nuclear Repulsion  :       3216.15519304146073 Eh           87516.03203 eV
Electronic Energy  :      -4819.86885827920923 Eh         -131155.29944 eV
One Electron Energy:      -8564.91919929344294 Eh         -233063.30012 eV
Two Electron Energy:       3745.05034101423416 Eh          101908.00068 eV
CPCM Dielectric    :         -0.08809409730588 Eh              -2.39716 eV

Virial components:
Potential Energy   :      -3203.22388907984259 Eh          -87164.15336 eV
Kinetic Energy     :       1599.42220630389579 Eh           43522.49087 eV
Virial Ratio       :          2.00273816160285

DFT components:
N(Alpha)           :      106.000099597548 electrons
N(Beta)            :      106.000099597548 electrons
N(Total)           :      212.000199195096 electrons
E(X)               :     -150.673145832527 Eh       
E(C)               :       -9.481621339525 Eh       
E(XC)              :     -160.154767172052 Eh       

CPCM Solvation Model Properties:
Surface-charge          :         -1.02930539740116
Corrected charge        :         -1.00000000000000
Outlying charge corr.   :          0.00004333572726 Eh               0.00118 eV
Free-energy (cav+disp)  :  This term is not implemented in the current solvation scheme

---------------
SCF CONVERGENCE
---------------

  Last Energy change         ...    3.3449e-08  Tolerance :   1.0000e-08
  Last MAX-Density change    ...    5.3823e-06  Tolerance :   1.0000e-07
  Last RMS-Density change    ...    1.4938e-07  Tolerance :   5.0000e-09
  Last DIIS Error            ...    2.0021e-03  Tolerance :   5.0000e-07
  Last Orbital Gradient      ...    1.2453e-06  Tolerance :   1.0000e-05
  Last Orbital Rotation      ...    6.1347e-06  Tolerance :   1.0000e-05


----------------
ORBITAL ENERGIES
----------------

  NO   OCC          E(Eh)            E(eV) 
   0   2.0000     -77.225562     -2101.4144 
   1   2.0000     -19.195477      -522.3355 
   2   2.0000     -19.181204      -521.9471 
   3   2.0000     -19.174309      -521.7595 
   4   2.0000     -19.116551      -520.1878 
   5   2.0000     -19.100629      -519.7545 
   6   2.0000     -14.432810      -392.7367 
   7   2.0000     -14.355554      -390.6345 
   8   2.0000     -10.332135      -281.1517 
   9   2.0000     -10.278420      -279.6900 
  10   2.0000     -10.272117      -279.5185 
  11   2.0000     -10.271704      -279.5073 
  12   2.0000     -10.243163      -278.7306 
  13   2.0000     -10.236783      -278.5570 
  14   2.0000     -10.234756      -278.5019 
  15   2.0000     -10.231423      -278.4112 
  16   2.0000     -10.220121      -278.1036 
  17   2.0000     -10.219025      -278.0738 
  18   2.0000     -10.215427      -277.9759 
  19   2.0000     -10.201489      -277.5966 
  20   2.0000     -10.200776      -277.5772 
  21   2.0000     -10.197300      -277.4826 
  22   2.0000     -10.197188      -277.4796 
  23   2.0000     -10.195870      -277.4437 
  24   2.0000     -10.189512      -277.2707 
  25   2.0000     -10.188208      -277.2352 
  26   2.0000     -10.165773      -276.6247 
  27   2.0000     -10.164825      -276.5990 
  28   2.0000      -6.707743      -182.5270 
  29   2.0000      -4.869985      -132.5190 
  30   2.0000      -4.869750      -132.5126 
  31   2.0000      -4.868179      -132.4699 
  32   2.0000      -1.145366       -31.1670 
  33   2.0000      -1.128702       -30.7135 
  34   2.0000      -1.074015       -29.2254 
  35   2.0000      -1.051876       -28.6230 
  36   2.0000      -1.040064       -28.3016 
  37   2.0000      -1.012320       -27.5466 
  38   2.0000      -0.962310       -26.1858 
  39   2.0000      -0.913695       -24.8629 
  40   2.0000      -0.877669       -23.8826 
  41   2.0000      -0.849768       -23.1234 
  42   2.0000      -0.820960       -22.3395 
  43   2.0000      -0.790745       -21.5173 
  44   2.0000      -0.783656       -21.3244 
  45   2.0000      -0.776220       -21.1220 
  46   2.0000      -0.770557       -20.9679 
  47   2.0000      -0.732972       -19.9452 
  48   2.0000      -0.725433       -19.7400 
  49   2.0000      -0.710417       -19.3314 
  50   2.0000      -0.697128       -18.9698 
  51   2.0000      -0.684038       -18.6136 
  52   2.0000      -0.668430       -18.1889 
  53   2.0000      -0.655383       -17.8339 
  54   2.0000      -0.648677       -17.6514 
  55   2.0000      -0.612998       -16.6805 
  56   2.0000      -0.603527       -16.4228 
  57   2.0000      -0.575369       -15.6566 
  58   2.0000      -0.563161       -15.3244 
  59   2.0000      -0.560285       -15.2461 
  60   2.0000      -0.553718       -15.0674 
  61   2.0000      -0.548749       -14.9322 
  62   2.0000      -0.543662       -14.7938 
  63   2.0000      -0.520849       -14.1730 
  64   2.0000      -0.518043       -14.0967 
[...]
133:   3041.34   0.008434   42.62  0.000865  ( 0.006438 -0.009977  0.026914)
134:   3051.33   0.015987   80.79  0.001635  (-0.031236 -0.008703  0.024158)
135:   3052.49   0.003431   17.34  0.000351  ( 0.002323 -0.006135  0.017543)
136:   3085.36   0.004527   22.88  0.000458  ( 0.020099 -0.002974  0.006714)
137:   3091.69   0.003277   16.56  0.000331  ( 0.012475 -0.013234 -0.000218)
138:   3102.36   0.013080   66.10  0.001316  ( 0.001744  0.033622  0.013498)
139:   3106.73   0.003958   20.00  0.000398  (-0.001372  0.018525  0.007248)
140:   3106.88   0.003467   17.52  0.000348  ( 0.010704  0.015230 -0.001290)
141:   3108.71   0.005482   27.70  0.000550  (-0.018886  0.013472  0.003476)
142:   3110.19   0.011705   59.15  0.001174  (-0.024300  0.019001  0.014930)
143:   3113.29   0.005910   29.87  0.000592  ( 0.017106 -0.006109  0.016201)
144:   3139.62   0.007608   38.45  0.000756  ( 0.013757  0.023725 -0.002013)
145:   3145.63   0.009069   45.83  0.000900  (-0.001981  0.010852  0.027893)
146:   3180.75   0.000973    4.92  0.000095  ( 0.009765 -0.000213 -0.000246)
147:   3200.10   0.000765    3.87  0.000075  ( 0.003622 -0.001996  0.007584)
148:   3202.78   0.000410    2.07  0.000040  ( 0.002566 -0.003153  0.004839)
149:   3208.21   0.000660    3.34  0.000064  (-0.001607 -0.006723  0.004053)
150:   3210.89   0.000266    1.34  0.000026  (-0.000903  0.002804 -0.004141)
151:   3217.46   0.002225   11.25  0.000216  (-0.002611  0.007914 -0.012099)
152:   3227.37   0.000609    3.08  0.000059  ( 0.002615  0.006686 -0.002715)
153:   3230.35   0.004557   23.03  0.000440  ( 0.015510  0.014121 -0.000478)
154:   3240.34   0.003478   17.57  0.000335  (-0.008190 -0.014958  0.006641)
155:   3257.60   0.000182    0.92  0.000017  (-0.000846 -0.004001  0.000816)

* The epsilon (eps) is given for a Dirac delta lineshape.
** The dipole moment derivative (T) already includes vibrational overlap.

The first frequency considered to be a vibration is 9
The total number of vibrations considered is 147


--------------------------
THERMOCHEMISTRY AT 298.15K
--------------------------

Temperature         ...   298.15 K
Pressure            ...     1.00 atm
Total Mass          ...   403.39 AMU
Quasi RRHO          ...     True
Cut-Off Frequency   ...     1.00 cm^-1

Throughout the following assumptions are being made:
  (1) The electronic state is orbitally nondegenerate
  (2) There are no thermally accessible electronically excited states
  (3) Hindered rotations indicated by low frequency modes are not
      treated as such but are treated as vibrations and this may
      cause some error
  (4) All equations used are the standard statistical mechanics
      equations for an ideal gas
  (5) All vibrations are strictly harmonic

freq.      17.74  E(vib)   ...       0.57 
freq.      28.17  E(vib)   ...       0.55 
freq.      40.46  E(vib)   ...       0.54 
freq.      52.79  E(vib)   ...       0.52 
freq.      59.38  E(vib)   ...       0.51 
freq.      68.90  E(vib)   ...       0.50 
freq.      81.12  E(vib)   ...       0.48 
freq.      91.98  E(vib)   ...       0.47 
freq.     105.46  E(vib)   ...       0.45 
freq.     116.28  E(vib)   ...       0.44 
freq.     132.63  E(vib)   ...       0.42 
freq.     133.61  E(vib)   ...       0.42 
freq.     143.53  E(vib)   ...       0.41 
freq.     171.66  E(vib)   ...       0.38 
freq.     176.51  E(vib)   ...       0.38 
freq.     206.96  E(vib)   ...       0.35 
freq.     212.13  E(vib)   ...       0.34 
freq.     225.54  E(vib)   ...       0.33 
freq.     248.34  E(vib)   ...       0.31 
freq.     249.11  E(vib)   ...       0.31 
freq.     262.57  E(vib)   ...       0.29 
freq.     268.80  E(vib)   ...       0.29 
freq.     271.93  E(vib)   ...       0.29 
freq.     290.14  E(vib)   ...       0.27 
freq.     318.74  E(vib)   ...       0.25 
freq.     336.41  E(vib)   ...       0.24 
freq.     373.16  E(vib)   ...       0.21 
freq.     385.22  E(vib)   ...       0.20 
freq.     396.20  E(vib)   ...       0.20 
freq.     408.97  E(vib)   ...       0.19 
freq.     414.47  E(vib)   ...       0.19 
freq.     449.86  E(vib)   ...       0.17 
freq.     457.93  E(vib)   ...       0.16 
freq.     464.97  E(vib)   ...       0.16 
freq.     475.95  E(vib)   ...       0.15 
freq.     494.38  E(vib)   ...       0.14 
freq.     505.16  E(vib)   ...       0.14 
freq.     522.31  E(vib)   ...       0.13 
freq.     525.57  E(vib)   ...       0.13 
freq.     539.71  E(vib)   ...       0.12 
freq.     559.92  E(vib)   ...       0.12 
freq.     603.04  E(vib)   ...       0.10 
freq.     616.63  E(vib)   ...       0.09 
freq.     653.77  E(vib)   ...       0.08 
freq.     661.94  E(vib)   ...       0.08 
freq.     700.50  E(vib)   ...       0.07 
freq.     706.35  E(vib)   ...       0.07 
freq.     717.40  E(vib)   ...       0.07 
freq.     734.24  E(vib)   ...       0.06 
freq.     746.58  E(vib)   ...       0.06 
freq.     769.02  E(vib)   ...       0.06 
freq.     776.49  E(vib)   ...       0.05 
freq.     781.83  E(vib)   ...       0.05 
freq.     802.01  E(vib)   ...       0.05 
freq.     806.83  E(vib)   ...       0.05 
freq.     809.73  E(vib)   ...       0.05 
freq.     817.76  E(vib)   ...       0.05 
freq.     819.16  E(vib)   ...       0.05 
freq.     851.89  E(vib)   ...       0.04 
freq.     919.35  E(vib)   ...       0.03 
freq.     921.23  E(vib)   ...       0.03 
freq.     939.10  E(vib)   ...       0.03 
freq.     949.36  E(vib)   ...       0.03 
freq.     955.84  E(vib)   ...       0.03 
freq.     960.82  E(vib)   ...       0.03 
freq.     977.89  E(vib)   ...       0.03 
freq.     989.12  E(vib)   ...       0.02 
freq.     994.51  E(vib)   ...       0.02 
freq.    1007.74  E(vib)   ...       0.02 
freq.    1032.00  E(vib)   ...       0.02 
freq.    1061.51  E(vib)   ...       0.02 
freq.    1080.22  E(vib)   ...       0.02 
freq.    1096.25  E(vib)   ...       0.02 
freq.    1110.74  E(vib)   ...       0.02 
freq.    1114.28  E(vib)   ...       0.01 
freq.    1115.07  E(vib)   ...       0.01 
freq.    1127.85  E(vib)   ...       0.01 
freq.    1131.59  E(vib)   ...       0.01 
freq.    1133.66  E(vib)   ...       0.01 
freq.    1164.76  E(vib)   ...       0.01 
freq.    1176.92  E(vib)   ...       0.01 
freq.    1181.31  E(vib)   ...       0.01 
freq.    1185.65  E(vib)   ...       0.01 
freq.    1201.85  E(vib)   ...       0.01 
freq.    1204.54  E(vib)   ...       0.01 
freq.    1213.71  E(vib)   ...       0.01 
freq.    1242.08  E(vib)   ...       0.01 
freq.    1252.41  E(vib)   ...       0.01 
freq.    1256.67  E(vib)   ...       0.01 
freq.    1273.44  E(vib)   ...       0.01 
freq.    1299.12  E(vib)   ...       0.01 
freq.    1324.67  E(vib)   ...       0.01 
freq.    1330.78  E(vib)   ...       0.01 
freq.    1338.19  E(vib)   ...       0.01 
freq.    1360.48  E(vib)   ...       0.01 
freq.    1386.84  E(vib)   ...       0.00 
freq.    1403.58  E(vib)   ...       0.00 
freq.    1406.32  E(vib)   ...       0.00 
freq.    1411.15  E(vib)   ...       0.00 
freq.    1419.42  E(vib)   ...       0.00 
freq.    1422.41  E(vib)   ...       0.00 
freq.    1423.62  E(vib)   ...       0.00 
freq.    1435.27  E(vib)   ...       0.00 
freq.    1449.52  E(vib)   ...       0.00 
freq.    1458.15  E(vib)   ...       0.00 
freq.    1468.50  E(vib)   ...       0.00 
freq.    1484.86  E(vib)   ...       0.00 
freq.    1488.26  E(vib)   ...       0.00 
freq.    1488.97  E(vib)   ...       0.00 
freq.    1489.79  E(vib)   ...       0.00 
freq.    1493.88  E(vib)   ...       0.00 
freq.    1497.05  E(vib)   ...       0.00 
freq.    1499.26  E(vib)   ...       0.00 
freq.    1500.20  E(vib)   ...       0.00 
freq.    1518.89  E(vib)   ...       0.00 
freq.    1521.33  E(vib)   ...       0.00 
freq.    1527.93  E(vib)   ...       0.00 
freq.    1539.41  E(vib)   ...       0.00 
freq.    1560.56  E(vib)   ...       0.00 
freq.    1573.17  E(vib)   ...       0.00 
freq.    1593.21  E(vib)   ...       0.00 
freq.    1622.50  E(vib)   ...       0.00 
freq.    1785.91  E(vib)   ...       0.00 
freq.    3040.89  E(vib)   ...       0.00 
freq.    3041.34  E(vib)   ...       0.00 
freq.    3051.33  E(vib)   ...       0.00 
freq.    3052.49  E(vib)   ...       0.00 
freq.    3085.36  E(vib)   ...       0.00 
freq.    3091.69  E(vib)   ...       0.00 
freq.    3102.36  E(vib)   ...       0.00 
freq.    3106.73  E(vib)   ...       0.00 
freq.    3106.88  E(vib)   ...       0.00 
freq.    3108.71  E(vib)   ...       0.00 
freq.    3110.19  E(vib)   ...       0.00 
freq.    3113.29  E(vib)   ...       0.00 
freq.    3139.62  E(vib)   ...       0.00 
freq.    3145.63  E(vib)   ...       0.00 
freq.    3180.75  E(vib)   ...       0.00 
freq.    3200.10  E(vib)   ...       0.00 
freq.    3202.78  E(vib)   ...       0.00 
freq.    3208.21  E(vib)   ...       0.00 
freq.    3210.89  E(vib)   ...       0.00 
freq.    3217.46  E(vib)   ...       0.00 
freq.    3227.37  E(vib)   ...       0.00 
freq.    3230.35  E(vib)   ...       0.00 
freq.    3240.34  E(vib)   ...       0.00 
freq.    3257.60  E(vib)   ...       0.00 

------------
INNER ENERGY
------------

The inner energy is: U= E(el) + E(ZPE) + E(vib) + E(rot) + E(trans)
    E(el)   - is the total energy from the electronic structure calculation
              = E(kin-el) + E(nuc-el) + E(el-el) + E(nuc-nuc)
    E(ZPE)  - the the zero temperature vibrational energy from the frequency calculation
    E(vib)  - the the finite temperature correction to E(ZPE) due to population
              of excited vibrational states
    E(rot)  - is the rotational thermal energy
    E(trans)- is the translational thermal energy

Summary of contributions to the inner energy U:
Electronic energy                ...  -1603.72681952 Eh
Zero point energy                ...      0.41605447 Eh     261.08 kcal/mol
Thermal vibrational correction   ...      0.02309355 Eh      14.49 kcal/mol
Thermal rotational correction    ...      0.00141627 Eh       0.89 kcal/mol
Thermal translational correction ...      0.00141627 Eh       0.89 kcal/mol
-----------------------------------------------------------------------
Total thermal energy                  -1603.28483894 Eh


Summary of corrections to the electronic energy:
(perhaps to be used in another calculation)
Total thermal correction                  0.02592610 Eh      16.27 kcal/mol
Non-thermal (ZPE) correction              0.41605447 Eh     261.08 kcal/mol
-----------------------------------------------------------------------
Total correction                          0.44198057 Eh     277.35 kcal/mol


--------
ENTHALPY
--------

The enthalpy is H = U + kB*T
                kB is Boltzmann's constant
Total thermal energy              ...  -1603.28483894 Eh 
Thermal Enthalpy correction       ...      0.00094421 Eh       0.59 kcal/mol
-----------------------------------------------------------------------
Total Enthalpy                    ...  -1603.28389474 Eh


Note: Only C1 symmetry has been detected, increase convergence thresholds 
      if your molecule has a higher symmetry. Symmetry factor of 1.0 is   
      used for the rotational entropy correction. 
 

Note: Rotational entropy computed according to Herzberg 
Infrared and Raman Spectra, Chapter V,1, Van Nostrand Reinhold, 1945 
Point Group:  C1, Symmetry Number:   1  
Rotational constants in cm-1:     0.006870     0.006248     0.004251 

Vibrational entropy computed according to the QRRHO of S. Grimme
Chem.Eur.J. 2012 18 9955 using a reference frequency of 100.0 cm-1


-------
ENTROPY
-------

The entropy contributions are T*S = T*(S(el)+S(vib)+S(rot)+S(trans))
     S(el)   - electronic entropy
     S(vib)  - vibrational entropy
     S(rot)  - rotational entropy
     S(trans)- translational entropy
The entropies will be listed as multiplied by the temperature to get
units of energy

Electronic entropy                ...      0.00000000 Eh      0.00 kcal/mol
Vibrational entropy               ...      0.04094004 Eh     25.69 kcal/mol
Rotational entropy                ...      0.01683614 Eh     10.56 kcal/mol
Translational entropy             ...      0.02084658 Eh     13.08 kcal/mol
-----------------------------------------------------------------------
Final entropy term                ...      0.07862276 Eh     49.34 kcal/mol

In case the symmetry of your molecule has not been determined correctly
or in case you have a reason to use a different symmetry number we print 
out the resulting rotational entropy values for sn=1,12:

 non-linear molecules -----------------------------------
|  sn= 1 | S(rot)=       0.01683614 Eh     10.56 kcal/mol|
|  sn= 2 | S(rot)=       0.01618169 Eh     10.15 kcal/mol|
|  sn= 3 | S(rot)=       0.01579885 Eh      9.91 kcal/mol|
|  sn= 4 | S(rot)=       0.01552723 Eh      9.74 kcal/mol|
|  sn= 5 | S(rot)=       0.01531654 Eh      9.61 kcal/mol|
|  sn= 6 | S(rot)=       0.01514440 Eh      9.50 kcal/mol|
|  sn= 7 | S(rot)=       0.01499885 Eh      9.41 kcal/mol|
|  sn= 8 | S(rot)=       0.01487277 Eh      9.33 kcal/mol|
|  sn= 9 | S(rot)=       0.01476157 Eh      9.26 kcal/mol|
|  sn=10 | S(rot)=       0.01466209 Eh      9.20 kcal/mol|
|  sn=11 | S(rot)=       0.01457210 Eh      9.14 kcal/mol|
|  sn=12 | S(rot)=       0.01448994 Eh      9.09 kcal/mol|
 linear molecules ---------------------------------------
|  Dinfh | S(rot)=       0.01048171 Eh      6.58 kcal/mol|
|  Cinfv | S(rot)=       0.01113616 Eh      6.99 kcal/mol|
 --------------------------------------------------------


-------------------
GIBBS FREE ENERGY
-------------------

The Gibbs free energy is G = H - T*S

Total enthalpy                    ...  -1603.28389474 Eh 
Total entropy correction          ...     -0.07862276 Eh    -49.34 kcal/mol
-----------------------------------------------------------------------
Final Gibbs free energy         ...  -1603.36251750 Eh

For completeness - the Gibbs free energy minus the electronic energy
G-E(el)                           ...      0.36430202 Eh    228.60 kcal/mol



--------------------------------
SUGGESTED CITATIONS FOR THIS RUN
--------------------------------

Below you find a list of papers that are relevant to this ORCA run
We neither can nor want to force you to cite these papers, but we appreciate if you do
You receive ORCA, which is the product of decades of hard work by many enthusiastic individuals, for free
The only thing we kindly ask in return is that you cite our papers,
We deeply appreciate it, if you show your appreciation for ORCA by not just citing the generic ORCA reference.

Please note that relegating all ORCA citations to the supporting information does *not* help us.
SI sections are not indexed - citations you put there will not count into any citation statistics
But we need these citations in order to attract the funding resources that allow us to do what we are doing

Therefore, if you are a happy ORCA user, please consider citing a few of the papers listed below in the main body of your paper

In addition to the list printed below, the program has created the file 5.bibtex that contains the list in bibtex format
You can import this file easily into all common literature databanks and citation aid programs


List of essential papers. We consider these as the minimum necessary citations

  1. Neese,F.
     Software update: the ORCA program system, version 5.0
     WIRES Comput. Molec. Sci., 2022 12(1)e1606
     doi.org/10.1002/wcms.1606

List of papers to cite with high priority. The work reported in these papers was absolutely
necessary for this run to complete.
Our perspective: the developers of density functionals and basis sets usually get cited in chemistry papers
Good! But without the algorithms to do something with them, the functionals or basis sets would not do anything.
Hence, in our opinion, the algorithm design and method developments papers are equally worthy of getting cited

  1. Neese,F.; Olbrich,G.
     Efficient use of the resolution of the identity approximation in time-dependent density functional calculations with hybrid density functionals
     Chem. Phys. Lett., 2002 362 170-178
     doi.org/10.1016/s0009-2614(02)01053-9
  2. Neese,F.
     An improvement of the resolution of the identity approximation for the formation of the Coulomb matrix
     J. Comp. Chem., 2003 24(14)1740-1747
     doi.org/10.1002/jcc.10318
  3. Neese,F.; Wennmohs,F.; Hansen,A.; Becker,U.
     Efficient, approximate and parallel Hartree-Fock and hybrid DFT calculations. A 'chain-of-spheres' algorithm for the Hartree-Fock exchange
     Chem. Phys., 2009 356(1-3)98-109
     doi.org/10.1016/j.chemphys.2008.10.036
  4. Petrenko,T.; Kossmann,S.; Neese,F.
     Efficient time-dependent density functional theory approximations for hybrid density functionals: Analytical gradients and parallelization
     J. Chem. Phys., 2011 134 054116
     doi.org/10.1063/1.3533441
  5. Bykov,D.; Petrenko,T.; Izsak,R.; Kossmann,S.; Becker,U.; Valeev,E.; Neese,F.
     Efficient implementation of the analytic second derivatives of Hartree-Fock and hybrid DFT energies: a detailed analysis of different approximations
     Molec. Phys., 2015 113 1961-1977
     doi.org/10.1080/00268976.2015.1025114
  6. Garcia-Rates,M.; Neese,F.
     Effect of the Solute Cavity on the Solvation Energy and its Derivatives within the Framework of the Gaussian Charge Scheme
     J. Comput. Chem., 2020 41 922-939
     doi.org/10.1002/jcc.26139
  7. Helmich-Paris,B.; de Souza,B.; Neese,F.; Izsák,R.
     An improved chain of spheres for exchange algorithm
     J. Chem. Phys., 2021 155 104109
     doi.org/doi: 10.1063/5.0058766.
  8. Neese,F.
     The SHARK Integral Generation and Digestion System
     J. Comp. Chem., 2022  1-16
     doi.org/10.1002/jcc.26942

List of suggested additional citations. These are papers that are important in the 'surrounding' of 
of this run, or papers that preceded the highly important papers. If you like your results we are grateful for a citation.

  1. Izsak,R.; Neese,F.
     An overlap fitted chain of spheres exchange method
     J. Chem. Phys., 2011 135 144105
     doi.org/10.1063/1.3646921
  2. Izsak,R.; Hansen,A.; Neese,F.
     The resolution of identity and chain of spheres approximations for the LPNO-CCSD singles Fock term
     Molec. Phys., 2012 110 2413-2417
     doi.org/10.1080/00268976.2012.687466
  3. Neese,F.
     The ORCA program system
     WIRES Comput. Molec. Sci., 2012 2(1)73-78
     doi.org/10.1002/wcms.81
  4. Izsak,R.; Neese,F.; Klopper,W.
     Robust fitting techniques in the chain of spheres approximation to the Fock exchange: The role of the complementary space
     J. Chem. Phys., 2013 139 
     doi.org/10.1063/1.4819264
  5. Neese,F.
     Software update: the ORCA program system, version 4.0
     WIRES Comput. Molec. Sci., 2018 8(1)1-6
     doi.org/10.1002/wcms.1327
  6. Neese,F.; Wennmohs,F.; Becker,U.; Riplinger,C.
     The ORCA quantum chemistry program package
     J. Chem. Phys., 2020 152 Art. No. L224108
     doi.org/10.1063/5.0004608

List of optional additional citations

  1. Neese,F.
     Approximate second-order SCF convergence for spin unrestricted wavefunctions
     Chem. Phys. Lett., 2000 325(1-3)93-98
     doi.org/10.1016/s0009-2614(00)00662-x

Timings for individual modules:

Sum of individual times          ...   266000.456 sec (=4433.341 min)
Startup calculation              ...      192.704 sec (=   3.212 min)   0.1 %
SCF iterations                   ...     5603.176 sec (=  93.386 min)   2.1 %
Property integrals               ...       18.186 sec (=   0.303 min)   0.0 %
Property calculations            ...        0.400 sec (=   0.007 min)   0.0 %
CIS module                       ...    15145.770 sec (= 252.429 min)   5.7 %
Geometry relaxation              ...        0.746 sec (=   0.012 min)   0.0 %
Numerical frequency calculation  ...   245039.475 sec (=4083.991 min)  92.1 %
                             ****ORCA TERMINATED NORMALLY****
TOTAL RUN TIME: 3 days 1 hours 41 minutes 13 seconds 614 msec
