
                                 *****************
                                 * O   R   C   A *
                                 *****************

                                            #,                                       
                                            ###                                      
                                            ####                                     
                                            #####                                    
                                            ######                                   
                                           ########,                                 
                                     ,,################,,,,,                         
                               ,,#################################,,                 
                          ,,##########################################,,             
                       ,#########################################, ''#####,          
                    ,#############################################,,   '####,        
                  ,##################################################,,,,####,       
                ,###########''''           ''''###############################       
              ,#####''   ,,,,##########,,,,          '''####'''          '####       
            ,##' ,,,,###########################,,,                        '##       
           ' ,,###''''                  '''############,,,                           
         ,,##''                                '''############,,,,        ,,,,,,###''
      ,#''                                            '''#######################'''  
     '                                                          ''''####''''         
             ,#######,   #######,   ,#######,      ##                                
            ,#'     '#,  ##    ##  ,#'     '#,    #''#        ######   ,####,        
            ##       ##  ##   ,#'  ##            #'  '#       #        #'  '#        
            ##       ##  #######   ##           ,######,      #####,   #    #        
            '#,     ,#'  ##    ##  '#,     ,#' ,#      #,         ##   #,  ,#        
             '#######'   ##     ##  '#######'  #'      '#     #####' # '####'        



                  #######################################################
                  #                        -***-                        #
                  #          Department of theory and spectroscopy      #
                  #    Directorship and core code : Frank Neese         #
                  #        Max Planck Institute fuer Kohlenforschung    #
                  #                Kaiser Wilhelm Platz 1               #
                  #                 D-45470 Muelheim/Ruhr               #
                  #                      Germany                        #
                  #                                                     #
                  #                  All rights reserved                #
                  #                        -***-                        #
                  #######################################################


                         Program Version 5.0.4 -  RELEASE  -


 With contributions from (in alphabetic order):
   Daniel Aravena         : Magnetic Suceptibility
   Michael Atanasov       : Ab Initio Ligand Field Theory (pilot matlab implementation)
   Alexander A. Auer      : GIAO ZORA, VPT2 properties, NMR spectrum
   Ute Becker             : Parallelization
   Giovanni Bistoni       : ED, misc. LED, open-shell LED, HFLD
   Martin Brehm           : Molecular dynamics
   Dmytro Bykov           : SCF Hessian
   Vijay G. Chilkuri      : MRCI spin determinant printing, contributions to CSF-ICE
   Dipayan Datta          : RHF DLPNO-CCSD density
   Achintya Kumar Dutta   : EOM-CC, STEOM-CC
   Dmitry Ganyushin       : Spin-Orbit,Spin-Spin,Magnetic field MRCI
   Miquel Garcia          : C-PCM and meta-GGA Hessian, CC/C-PCM, Gaussian charge scheme
   Yang Guo               : DLPNO-NEVPT2, F12-NEVPT2, CIM, IAO-localization
   Andreas Hansen         : Spin unrestricted coupled pair/coupled cluster methods
   Benjamin Helmich-Paris : MC-RPA, TRAH-SCF, COSX integrals
   Lee Huntington         : MR-EOM, pCC
   Robert Izsak           : Overlap fitted RIJCOSX, COSX-SCS-MP3, EOM
   Marcus Kettner         : VPT2
   Christian Kollmar      : KDIIS, OOCD, Brueckner-CCSD(T), CCSD density, CASPT2, CASPT2-K
   Simone Kossmann        : Meta GGA functionals, TD-DFT gradient, OOMP2, MP2 Hessian
   Martin Krupicka        : Initial AUTO-CI
   Lucas Lang             : DCDCAS
   Marvin Lechner         : AUTO-CI (C++ implementation), FIC-MRCC
   Dagmar Lenk            : GEPOL surface, SMD
   Dimitrios Liakos       : Extrapolation schemes; Compound Job, initial MDCI parallelization
   Dimitrios Manganas     : Further ROCIS development; embedding schemes
   Dimitrios Pantazis     : SARC Basis sets
   Anastasios Papadopoulos: AUTO-CI, single reference methods and gradients
   Taras Petrenko         : DFT Hessian,TD-DFT gradient, ASA, ECA, R-Raman, ABS, FL, XAS/XES, NRVS
   Peter Pinski           : DLPNO-MP2, DLPNO-MP2 Gradient
   Christoph Reimann      : Effective Core Potentials
   Marius Retegan         : Local ZFS, SOC
   Christoph Riplinger    : Optimizer, TS searches, QM/MM, DLPNO-CCSD(T), (RO)-DLPNO pert. Triples
   Tobias Risthaus        : Range-separated hybrids, TD-DFT gradient, RPA, STAB
   Michael Roemelt        : Original ROCIS implementation
   Masaaki Saitow         : Open-shell DLPNO-CCSD energy and density
   Barbara Sandhoefer     : DKH picture change effects
   Avijit Sen             : IP-ROCIS
   Kantharuban Sivalingam : CASSCF convergence, NEVPT2, FIC-MRCI
   Bernardo de Souza      : ESD, SOC TD-DFT
   Georgi Stoychev        : AutoAux, RI-MP2 NMR, DLPNO-MP2 response
   Willem Van den Heuvel  : Paramagnetic NMR
   Boris Wezisla          : Elementary symmetry handling
   Frank Wennmohs         : Technical directorship


 We gratefully acknowledge several colleagues who have allowed us to
 interface, adapt or use parts of their codes:
   Stefan Grimme, W. Hujo, H. Kruse, P. Pracht,  : VdW corrections, initial TS optimization,
                  C. Bannwarth, S. Ehlert          DFT functionals, gCP, sTDA/sTD-DF
   Ed Valeev, F. Pavosevic, A. Kumar             : LibInt (2-el integral package), F12 methods
   Garnet Chan, S. Sharma, J. Yang, R. Olivares  : DMRG
   Ulf Ekstrom                                   : XCFun DFT Library
   Mihaly Kallay                                 : mrcc  (arbitrary order and MRCC methods)
   Jiri Pittner, Ondrej Demel                    : Mk-CCSD
   Frank Weinhold                                : gennbo (NPA and NBO analysis)
   Christopher J. Cramer and Donald G. Truhlar   : smd solvation model
   Lars Goerigk                                  : TD-DFT with DH, B97 family of functionals
   V. Asgeirsson, H. Jonsson                     : NEB implementation
   FAccTs GmbH                                   : IRC, NEB, NEB-TS, DLPNO-Multilevel, CI-OPT
                                                   MM, QMMM, 2- and 3-layer-ONIOM, Crystal-QMMM,
                                                   LR-CPCM, SF, NACMEs, symmetry and pop. for TD-DFT,
                                                   nearIR, NL-DFT gradient (VV10), updates on ESD,
                                                   ML-optimized integration grids
   S Lehtola, MJT Oliveira, MAL Marques          : LibXC Library
   Liviu Ungur et al                             : ANISO software


 Your calculation uses the libint2 library for the computation of 2-el integrals
 For citations please refer to: http://libint.valeyev.net

 Your ORCA version has been built with support for libXC version: 5.1.0
 For citations please refer to: https://tddft.org/programs/libxc/

 This ORCA versions uses:
   CBLAS   interface :  Fast vector & matrix operations
   LAPACKE interface :  Fast linear algebra routines
   SCALAPACK package :  Parallel linear algebra routines
   Shared memory     :  Shared parallel matrices
   BLAS/LAPACK       :  OpenBLAS 0.3.15  USE64BITINT DYNAMIC_ARCH NO_AFFINITY Zen SINGLE_THREADED
        Core in use  :  Zen
   Copyright (c) 2011-2014, The OpenBLAS Project


================================================================================

----- Orbital basis set information -----
Your calculation utilizes the basis: def2-TZVP(-f)
   F. Weigend and R. Ahlrichs, Phys. Chem. Chem. Phys. 7, 3297 (2005).

----- AuxJ basis set information -----
Your calculation utilizes the auxiliary basis: def2/J
   F. Weigend, Phys. Chem. Chem. Phys. 8, 1057 (2006).

----- AuxC basis set information -----
Your calculation utilizes the auxiliary basis: def2-TZVP/C
  H-La, Hf-Rn : A. Hellweg, C. Hattig, S. Hofener and W. Klopper, Theor. Chem. Acc. 117, 587 (2007).
        Ce-Lu : J. Chmela and M. E. Harding, Mol. Phys. (2018).

================================================================================
                                        WARNINGS
                       Please study these warnings very carefully!
================================================================================


WARNING: Geometry Optimization
  ===> : Switching off AutoStart
         For restart on a previous wavefunction, please use MOREAD

INFO   : the flag for use of the SHARK integral package has been found!

================================================================================
                                       INPUT FILE
================================================================================
NAME = HBQ-H.inp
|  1> ! B3LYP/G OPT Def2-TZVP(-f) Def2-TZVP/C Def2/J RIJCOSX TightSCF CPCM(Water) AllPop SOSCF
|  2> 
|  3> * xyz 1 1
|  4>    C       -3.29718        0.08009       -0.57754
|  5>    C       -2.94831       -1.25176       -0.76327
|  6>    C       -1.62327       -1.64483       -0.62052
|  7>    C       -2.32763        1.02670       -0.23980
|  8>    C       -0.97558        0.64571       -0.09955
|  9>    O       -2.73762        2.34302       -0.08843
| 10>    C       -0.64100       -0.70862       -0.29321
| 11>    C        0.67722       -1.14534       -0.16221
| 12>    C        1.68589       -0.24958        0.16663
| 13>    C        0.04489        1.56118        0.23933
| 14>    C        1.38134        1.09252        0.36945
| 15>    N       -0.02088        2.66985        0.44445
| 16>    C        0.59304        3.56849        0.71670
| 17>    C        1.96271        3.30950        0.88917
| 18>    C        2.39787        1.99616        0.70805
| 19>    C       -3.79792        2.81287        0.61524
| 20>    O       -4.43963        3.76563        0.22065
| 21>    N       -4.03014        2.23940        1.83272
| 22>    C       -5.21182        2.62287        2.62242
| 23>    C       -3.05282        1.42865        2.58379
| 24>    H       -2.04020        1.78802        2.38208
| 25>    H       -3.13894        0.38035        2.28744
| 26>    H       -3.23560        1.51033        3.65869
| 27>    H       -6.06995        2.76518        1.95948
| 28>    H       -5.00538        3.55722        3.15131
| 29>    H       -5.45505        1.83955        3.34553
| 30>    H       -1.35861       -2.68939       -0.76955
| 31>    H       -4.33440        0.38243       -0.70035
| 32>    H       -3.70950       -1.98289       -1.02389
| 33>    H        0.92628       -2.19290       -0.31588
| 34>    H        2.70958       -0.60264        0.26670
| 35>    H        0.18834        4.57130        0.84227
| 36>    H        2.65738        4.10272        1.15388
| 37>    H        3.43881        1.70436        0.82230
| 38>    H       -0.95085        2.87464        0.07772
| 39> *
| 40> 
| 41> 
| 42>                          ****END OF INPUT****
================================================================================

                       *****************************
                       * Geometry Optimization Run *
                       *****************************

Geometry optimization settings:
Update method            Update   .... BFGS
Choice of coordinates    CoordSys .... Z-matrix Internals
Initial Hessian          InHess   .... Almoef's Model

Convergence Tolerances:
Energy Change            TolE     ....  5.0000e-06 Eh
Max. Gradient            TolMAXG  ....  3.0000e-04 Eh/bohr
RMS Gradient             TolRMSG  ....  1.0000e-04 Eh/bohr
Max. Displacement        TolMAXD  ....  4.0000e-03 bohr
RMS Displacement         TolRMSD  ....  2.0000e-03 bohr
Strict Convergence                ....  False
------------------------------------------------------------------------------
                        ORCA OPTIMIZATION COORDINATE SETUP
------------------------------------------------------------------------------

The optimization will be done in new redundant internal coordinates
Making redundant internal coordinates   ...  (new redundants) done
Evaluating the initial hessian          ...  (Almloef) done
Evaluating the coordinates              ...  done
Calculating the B-matrix                .... done
Calculating the G-matrix                .... done
Diagonalizing the G-matrix              .... done
Small eigenvalue found = 3.916e-03
Small eigenvalue found = 4.910e-03
Small eigenvalue found = 1.079e-02
Small eigenvalue found = 2.780e-02
The first mode is                       ....   83
The number of degrees of freedom        ....   99

    -----------------------------------------------------------------
                    Redundant Internal Coordinates


    -----------------------------------------------------------------
         Definition                    Initial Value    Approx d2E/dq
    -----------------------------------------------------------------
      1. B(C   1,C   0)                  1.3893         0.626508   
      2. B(C   2,C   1)                  1.3895         0.626026   
      3. B(C   3,C   0)                  1.3965         0.610091   
      4. B(C   4,C   3)                  1.4117         0.576948   
      5. B(O   5,C   3)                  1.3870         0.565848   
      6. B(C   6,C   4)                  1.4084         0.583908   
      7. B(C   6,C   2)                  1.3959         0.611450   
      8. B(C   7,C   6)                  1.3948         0.613777   
      9. B(C   8,C   7)                  1.3885         0.628245   
     10. B(C   9,C   4)                  1.4122         0.575883   
     11. B(C  10,C   9)                  1.4222         0.555079   
     12. B(C  10,C   8)                  1.3911         0.622310   
     13. B(N  11,C   9)                  1.1294         1.457615   
     14. B(C  12,N  11)                  1.1219         1.498561   
     15. B(C  13,C  12)                  1.4046         0.592233   
     16. B(C  14,C  13)                  1.3954         0.612613   
     17. B(C  14,C  10)                  1.4016         0.598679   
     18. B(C  15,O   5)                  1.3565         0.632835   
     19. B(O  16,C  15)                  1.2146         1.065910   
     20. B(N  17,C  15)                  1.3657         0.611919   
     21. B(C  18,N  17)                  1.4721         0.413913   
     22. B(C  19,N  17)                  1.4753         0.409024   
     23. B(H  20,C  19)                  1.0933         0.355804   
     24. B(H  21,C  19)                  1.0928         0.356438   
     25. B(H  22,C  19)                  1.0934         0.355650   
     26. B(H  23,C  18)                  1.0937         0.355269   
     27. B(H  24,C  18)                  1.0933         0.355733   
     28. B(H  25,C  18)                  1.0935         0.355561   
     29. B(H  26,C   2)                  1.0878         0.362990   
     30. B(H  27,C   0)                  1.0873         0.363631   
     31. B(H  28,C   1)                  1.0871         0.363897   
     32. B(H  29,C   7)                  1.0877         0.363195   
     33. B(H  30,C   8)                  1.0875         0.363453   
     34. B(H  31,C  12)                  1.0887         0.361879   
     35. B(H  32,C  13)                  1.0871         0.363926   
     36. B(H  33,C  14)                  1.0871         0.363975   
     37. B(H  34,N  11)                  1.0204         0.416445   
     38. A(C   1,C   0,H  27)          119.4069         0.354118   
     39. A(C   1,C   0,C   3)          120.5193         0.433624   
     40. A(C   3,C   0,H  27)          120.0735         0.352530   
     41. A(C   0,C   1,H  28)          120.0632         0.354162   
     42. A(C   0,C   1,C   2)          119.7981         0.435641   
     43. A(C   2,C   1,H  28)          120.1381         0.354116   
     44. A(C   1,C   2,C   6)          120.3593         0.433737   
     45. A(C   1,C   2,H  26)          119.3130         0.353966   
     46. A(C   6,C   2,H  26)          120.3275         0.352557   
     47. A(C   4,C   3,O   5)          121.8976         0.418804   
     48. A(C   0,C   3,C   4)          120.4002         0.427255   
     49. A(C   0,C   3,O   5)          117.6770         0.423000   
     50. A(C   3,C   4,C   9)          122.7499         0.422866   
     51. A(C   6,C   4,C   9)          118.9927         0.423773   
     52. A(C   3,C   4,C   6)          118.2537         0.423913   
     53. A(C   3,O   5,C  15)          128.0525         0.423007   
     54. A(C   2,C   6,C   7)          118.4940         0.432199   
     55. A(C   4,C   6,C   7)          120.8414         0.428637   
     56. A(C   2,C   6,C   4)          120.6646         0.428345   
     57. A(C   8,C   7,H  29)          119.2389         0.354212   
     58. A(C   6,C   7,H  29)          120.3106         0.352818   
     59. A(C   6,C   7,C   8)          120.4505         0.434310   
     60. A(C   7,C   8,H  30)          119.7477         0.354255   
     61. A(C  10,C   8,H  30)          120.3910         0.353686   
     62. A(C   7,C   8,C  10)          119.8611         0.435391   
     63. A(C  10,C   9,N  11)          111.1977         0.494013   
     64. A(C   4,C   9,C  10)          119.1682         0.419959   
     65. A(C   4,C   9,N  11)          129.6327         0.497400   
     66. A(C   8,C  10,C  14)          119.8975         0.431632   
     67. A(C   9,C  10,C  14)          119.4176         0.422880   
     68. A(C   8,C  10,C   9)          120.6848         0.425818   
     69. A(C   9,N  11,H  34)          100.6499         0.413409   
     70. A(C   9,N  11,C  12)          142.9899         0.591927   
     71. A(C  12,N  11,H  34)          115.1621         0.415449   
     72. A(N  11,C  12,H  31)          124.2234         0.408964   
     73. A(C  13,C  12,H  31)          121.2111         0.350478   
     74. A(N  11,C  12,C  13)          114.5655         0.502582   
     75. A(C  12,C  13,H  32)          121.2303         0.350812   
     76. A(C  12,C  13,C  14)          117.4986         0.429581   
     77. A(C  14,C  13,H  32)          121.2711         0.352824   
     78. A(C  10,C  14,H  33)          123.1477         0.351462   
     79. A(C  10,C  14,C  13)          114.3300         0.430416   
     80. A(C  13,C  14,H  33)          122.5223         0.352832   
     81. A(O  16,C  15,N  17)          121.9499         0.471560   
     82. A(O   5,C  15,N  17)          116.7378         0.428977   
     83. A(O   5,C  15,O  16)          121.0734         0.474481   
     84. A(C  18,N  17,C  19)          113.6915         0.370917   
     85. A(C  15,N  17,C  19)          124.8875         0.396999   
     86. A(C  15,N  17,C  18)          120.3545         0.397829   
     87. A(H  24,C  18,H  25)          109.5304         0.289706   
     88. A(H  23,C  18,H  25)          108.6350         0.289646   
     89. A(N  17,C  18,H  25)          110.2860         0.327177   
     90. A(H  23,C  18,H  24)          109.2796         0.289668   
     91. A(N  17,C  18,H  24)          109.3023         0.327203   
     92. A(N  17,C  18,H  23)          109.7894         0.327133   
     93. A(H  21,C  19,H  22)          108.9712         0.289807   
     94. A(H  20,C  19,H  22)          108.1596         0.289726   
     95. A(N  17,C  19,H  22)          110.4072         0.326551   
     96. A(H  20,C  19,H  21)          109.7728         0.289827   
     97. A(N  17,C  19,H  21)          109.6885         0.326670   
     98. A(N  17,C  19,H  20)          109.8166         0.326574   
     99. D(H  28,C   1,C   0,H  27)     -0.3185         0.027196   
    100. D(C   2,C   1,C   0,C   3)     -0.4122         0.027196   
    101. D(C   2,C   1,C   0,H  27)    179.4067         0.027196   
    102. D(H  28,C   1,C   0,C   3)    179.8627         0.027196   
    103. D(C   6,C   2,C   1,C   0)     -0.0781         0.027151   
    104. D(C   6,C   2,C   1,H  28)    179.6469         0.027151   
    105. D(H  26,C   2,C   1,H  28)     -0.1626         0.027151   
    106. D(H  26,C   2,C   1,C   0)   -179.8876         0.027151   
    107. D(O   5,C   3,C   0,H  27)     -0.7762         0.025707   
    108. D(O   5,C   3,C   0,C   1)    179.0414         0.025707   
    109. D(C   4,C   3,C   0,H  27)   -178.9856         0.025707   
    110. D(C   4,C   3,C   0,C   1)      0.8320         0.025707   
    111. D(C   6,C   4,C   3,O   5)   -178.8769         0.022858   
    112. D(C   6,C   4,C   3,C   0)     -0.7447         0.022858   
    113. D(C   9,C   4,C   3,O   5)      1.8268         0.022858   
    114. D(C   9,C   4,C   3,C   0)    179.9590         0.022858   
    115. D(C  15,O   5,C   3,C   4)   -134.0537         0.023223   
    116. D(C  15,O   5,C   3,C   0)     47.7655         0.023223   
    117. D(C   7,C   6,C   4,C   9)     -0.3933         0.023439   
    118. D(C   7,C   6,C   4,C   3)   -179.7167         0.023439   
    119. D(C   2,C   6,C   4,C   9)    179.5824         0.023439   
    120. D(C   7,C   6,C   2,H  26)     -0.0664         0.025828   
    121. D(C   2,C   6,C   4,C   3)      0.2589         0.023439   
    122. D(C   7,C   6,C   2,C   1)   -179.8740         0.025828   
    123. D(C   4,C   6,C   2,H  26)    179.9574         0.025828   
    124. D(C   4,C   6,C   2,C   1)      0.1498         0.025828   
    125. D(H  29,C   7,C   6,C   4)   -179.8624         0.026037   
    126. D(H  29,C   7,C   6,C   2)      0.1614         0.026037   
    127. D(C   8,C   7,C   6,C   4)      0.1938         0.026037   
    128. D(C   8,C   7,C   6,C   2)   -179.7823         0.026037   
    129. D(C  10,C   8,C   7,C   6)      0.1101         0.027356   
    130. D(H  30,C   8,C   7,H  29)      0.0011         0.027356   
    131. D(H  30,C   8,C   7,C   6)    179.9454         0.027356   
    132. D(C  10,C   8,C   7,H  29)   -179.8343         0.027356   
    133. D(N  11,C   9,C   4,C   6)   -179.2413         0.022770   
    134. D(N  11,C   9,C   4,C   3)      0.0501         0.022770   
    135. D(C  10,C   9,C   4,C   6)      0.2914         0.022770   
    136. D(C  10,C   9,C   4,C   3)    179.5828         0.022770   
    137. D(C  14,C  10,C   9,N  11)     -0.2681         0.021091   
    138. D(C  14,C  10,C   9,C   4)   -179.8821         0.021091   
    139. D(C   8,C  10,C   9,N  11)    179.6186         0.021091   
    140. D(C   8,C  10,C   9,C   4)      0.0046         0.021091   
    141. D(C  14,C  10,C   8,H  30)     -0.1561         0.026810   
    142. D(C  14,C  10,C   8,C   7)    179.6782         0.026810   
    143. D(C   9,C  10,C   8,H  30)    179.9577         0.026810   
    144. D(C   9,C  10,C   8,C   7)     -0.2080         0.026810   
    145. D(H  34,N  11,C   9,C  10)    165.8788         0.220980   
    146. D(H  34,N  11,C   9,C   4)    -14.5589         0.220980   
    147. D(C  12,N  11,C   9,C  10)      0.3752         0.220980   
    148. D(C  12,N  11,C   9,C   4)    179.9375         0.220980   
    149. D(H  31,C  12,N  11,H  34)     15.4547         0.236286   
    150. D(H  31,C  12,N  11,C   9)    179.6834         0.236286   
    151. D(C  13,C  12,N  11,H  34)   -164.4574         0.236286   
    152. D(C  13,C  12,N  11,C   9)     -0.2287         0.236286   
    153. D(H  32,C  13,C  12,H  31)      0.0617         0.024146   
    154. D(H  32,C  13,C  12,N  11)    179.9768         0.024146   
    155. D(C  14,C  13,C  12,H  31)   -179.9415         0.024146   
    156. D(C  14,C  13,C  12,N  11)     -0.0265         0.024146   
    157. D(C  10,C  14,C  13,C  12)      0.0257         0.025932   
    158. D(H  33,C  14,C  10,C   9)   -179.9374         0.024703   
    159. D(H  33,C  14,C  10,C   8)      0.1749         0.024703   
    160. D(C  13,C  14,C  10,C   9)      0.1205         0.024703   
    161. D(C  13,C  14,C  10,C   8)   -179.7671         0.024703   
    162. D(H  33,C  14,C  13,H  32)      0.0800         0.025932   
    163. D(H  33,C  14,C  13,C  12)   -179.9167         0.025932   
    164. D(C  10,C  14,C  13,H  32)   -179.9775         0.025932   
    165. D(N  17,C  15,O   5,C   3)     41.3050         0.029472   
    166. D(O  16,C  15,O   5,C   3)   -144.2031         0.029472   
    167. D(C  19,N  17,C  15,O  16)   -157.6616         0.030260   
    168. D(C  19,N  17,C  15,O   5)     16.7781         0.030260   
    169. D(C  18,N  17,C  15,O  16)      9.7654         0.030260   
    170. D(C  18,N  17,C  15,O   5)   -175.7949         0.030260   
    171. D(H  25,C  18,N  17,C  19)    -32.7612         0.014612   
    172. D(H  25,C  18,N  17,C  15)    158.4831         0.014612   
    173. D(H  24,C  18,N  17,C  19)     87.7098         0.014612   
    174. D(H  24,C  18,N  17,C  15)    -81.0458         0.014612   
    175. D(H  23,C  18,N  17,C  19)   -152.4342         0.014612   
    176. D(H  23,C  18,N  17,C  15)     38.8102         0.014612   
    177. D(H  22,C  19,N  17,C  18)    -16.9109         0.014273   
    178. D(H  22,C  19,N  17,C  15)    151.2520         0.014273   
    179. D(H  21,C  19,N  17,C  18)    103.1900         0.014273   
    180. D(H  21,C  19,N  17,C  15)    -88.6471         0.014273   
    181. D(H  20,C  19,N  17,C  18)   -136.0892         0.014273   
    182. D(H  20,C  19,N  17,C  15)     32.0737         0.014273   
    -----------------------------------------------------------------

Number of atoms                         .... 35
Number of degrees of freedom            .... 182

         *************************************************************
         *                GEOMETRY OPTIMIZATION CYCLE   1            *
         *************************************************************
---------------------------------
CARTESIAN COORDINATES (ANGSTROEM)
---------------------------------
  C     -3.297180    0.080090   -0.577540
  C     -2.948310   -1.251760   -0.763270
  C     -1.623270   -1.644830   -0.620520
  C     -2.327630    1.026700   -0.239800
  C     -0.975580    0.645710   -0.099550
  O     -2.737620    2.343020   -0.088430
  C     -0.641000   -0.708620   -0.293210
  C      0.677220   -1.145340   -0.162210
  C      1.685890   -0.249580    0.166630
  C      0.044890    1.561180    0.239330
  C      1.381340    1.092520    0.369450
  N     -0.020880    2.669850    0.444450
  C      0.593040    3.568490    0.716700
  C      1.962710    3.309500    0.889170
  C      2.397870    1.996160    0.708050
  C     -3.797920    2.812870    0.615240
  O     -4.439630    3.765630    0.220650
  N     -4.030140    2.239400    1.832720
  C     -5.211820    2.622870    2.622420
  C     -3.052820    1.428650    2.583790
  H     -2.040200    1.788020    2.382080
  H     -3.138940    0.380350    2.287440
  H     -3.235600    1.510330    3.658690
  H     -6.069950    2.765180    1.959480
  H     -5.005380    3.557220    3.151310
  H     -5.455050    1.839550    3.345530
  H     -1.358610   -2.689390   -0.769550
  H     -4.334400    0.382430   -0.700350
  H     -3.709500   -1.982890   -1.023890
  H      0.926280   -2.192900   -0.315880
  H      2.709580   -0.602640    0.266700
  H      0.188340    4.571300    0.842270
  H      2.657380    4.102720    1.153880
  H      3.438810    1.704360    0.822300
  H     -0.950850    2.874640    0.077720

----------------------------
CARTESIAN COORDINATES (A.U.)
----------------------------
  NO LB      ZA    FRAG     MASS         X           Y           Z
   0 C     6.0000    0    12.011   -6.230767    0.151348   -1.091392
   1 C     6.0000    0    12.011   -5.571498   -2.365484   -1.442371
   2 C     6.0000    0    12.011   -3.067536   -3.108278   -1.172613
   3 C     6.0000    0    12.011   -4.398583    1.940182   -0.453156
   4 C     6.0000    0    12.011   -1.843579    1.220215   -0.188122
   5 O     8.0000    0    15.999   -5.173352    4.427666   -0.167108
   6 C     6.0000    0    12.011   -1.211314   -1.339098   -0.554087
   7 C     6.0000    0    12.011    1.279760   -2.164379   -0.306532
   8 C     6.0000    0    12.011    3.185870   -0.471638    0.314885
   9 C     6.0000    0    12.011    0.084830    2.950203    0.452268
  10 C     6.0000    0    12.011    2.610354    2.064564    0.698159
  11 N     7.0000    0    14.007   -0.039457    5.045285    0.839889
  12 C     6.0000    0    12.011    1.120683    6.743469    1.354367
  13 C     6.0000    0    12.011    3.708984    6.254049    1.680288
  14 C     6.0000    0    12.011    4.531318    3.772196    1.338021
  15 C     6.0000    0    12.011   -7.177029    5.315554    1.162635
  16 O     8.0000    0    15.999   -8.389685    7.116009    0.416968
  17 N     7.0000    0    14.007   -7.615861    4.231853    3.463339
  18 C     6.0000    0    12.011   -9.848912    4.956506    4.955656
  19 C     6.0000    0    12.011   -5.768994    2.699757    4.882655
  20 H     1.0000    0     1.008   -3.855419    3.378868    4.501479
  21 H     1.0000    0     1.008   -5.931737    0.718757    4.322635
  22 H     1.0000    0     1.008   -6.114398    2.854110    6.913922
  23 H     1.0000    0     1.008  -11.470543    5.225433    3.702881
  24 H     1.0000    0     1.008   -9.458797    6.722172    5.955113
  25 H     1.0000    0     1.008  -10.308551    3.476246    6.322135
  26 H     1.0000    0     1.008   -2.567401   -5.082211   -1.454239
  27 H     1.0000    0     1.008   -8.190829    0.722688   -1.323470
  28 H     1.0000    0     1.008   -7.009939   -3.747119   -1.934872
  29 H     1.0000    0     1.008    1.750416   -4.143980   -0.596927
  30 H     1.0000    0     1.008    5.120364   -1.138825    0.503990
  31 H     1.0000    0     1.008    0.355911    8.638505    1.591660
  32 H     1.0000    0     1.008    5.021720    7.753017    2.180517
  33 H     1.0000    0     1.008    6.498409    3.220774    1.553922
  34 H     1.0000    0     1.008   -1.796846    5.432282    0.146870

--------------------------------
INTERNAL COORDINATES (ANGSTROEM)
--------------------------------
 C      0   0   0     0.000000000000     0.00000000     0.00000000
 C      1   0   0     1.389255315736     0.00000000     0.00000000
 C      2   1   0     1.389464857058   119.79810285     0.00000000
 C      1   2   3     1.396483441434   120.51930182   359.58781884
 C      4   1   2     1.411687870990   120.40016327     0.83203572
 O      4   1   2     1.386976214432   117.67701548   179.04142620
 C      3   2   1     1.395877986466   120.35925598   359.92193593
 C      7   3   2     1.394843835990   118.49399482   180.12604988
 C      8   7   3     1.388501671623   120.45054792   180.21765560
 C      5   4   1     1.412191203839   122.74990649   179.95895184
 C      9   8   7     1.391085570661   119.86110251     0.11009711
 N     10   5   4     1.129402087921   129.63269767     0.05007052
 C     12  10   5     1.121860810662   142.98985045   179.93754736
 C     13  12  10     1.404570265206   114.56548782   359.77129534
 C     14  13  12     1.395360396313   117.49858578   359.97354100
 C      6   4   1     1.356520026170   128.05245313    47.76546880
 O     16   6   4     1.214596480235   121.07341549   215.79685428
 N     16   6   4     1.365668890947   116.73784498    41.30503292
 C     18  16   6     1.472087957053   120.35449717   184.20514349
 C     18  16   6     1.475322368095   124.88750760    16.77812842
 H     20  18  16     1.093267115302   109.81655911    32.07366163
 H     20  18  16     1.092782168092   109.68851902   271.35290785
 H     20  18  16     1.093384726800   110.40715212   151.25199389
 H     19  18  16     1.093676678274   109.78936728    38.81020299
 H     19  18  16     1.093321557548   109.30234224   278.95418838
 H     19  18  16     1.093452846446   110.28604407   158.48314961
 H      3   2   1     1.087823721979   119.31296221   180.11242395
 H      1   2   3     1.087344057831   119.40690022   179.40667058
 H      2   1   3     1.087144920146   120.06323753   180.27483661
 H      8   7   3     1.087670587126   120.31055104     0.16142085
 H      9   8   7     1.087477165094   119.74765730   179.94543627
 H     13  12  10     1.088658721088   124.22340166   179.68340741
 H     14  13  12     1.087122698411   121.23031209   179.97676646
 H     15  14  13     1.087086190741   122.52229167   180.08327656
 H     12  10   5     1.020428360004   100.64986768   345.44114232

---------------------------
INTERNAL COORDINATES (A.U.)
---------------------------
 C      0   0   0     0.000000000000     0.00000000     0.00000000
 C      1   0   0     2.625312076835     0.00000000     0.00000000
 C      2   1   0     2.625708052548   119.79810285     0.00000000
 C      1   2   3     2.638971254867   120.51930182   359.58781884
 C      4   1   2     2.667703462749   120.40016327     0.83203572
 O      4   1   2     2.621005199539   117.67701548   179.04142620
 C      3   2   1     2.637827110790   120.35925598   359.92193593
 C      7   3   2     2.635872849610   118.49399482   180.12604988
 C      8   7   3     2.623887895859   120.45054792   180.21765560
 C      5   4   1     2.668654623988   122.74990649   179.95895184
 C      9   8   7     2.628770757398   119.86110251     0.11009711
 N     10   5   4     2.134260641249   129.63269767     0.05007052
 C     12  10   5     2.120009692531   142.98985045   179.93754736
 C     13  12  10     2.654253137088   114.56548782   359.77129534
 C     14  13  12     2.636849007152   117.49858578   359.97354100
 C      6   4   1     2.563451344641   128.05245313    47.76546880
 O     16   6   4     2.295254710869   121.07341549   215.79685428
 N     16   6   4     2.580740193506   116.73784498    41.30503292
 C     18  16   6     2.781843083873   120.35449717   184.20514349
 C     18  16   6     2.787955234947   124.88750760    16.77812842
 H     20  18  16     2.065975439142   109.81655911    32.07366163
 H     20  18  16     2.065059021727   109.68851902   271.35290785
 H     20  18  16     2.066197692665   110.40715212   151.25199389
 H     19  18  16     2.066749400994   109.78936728    38.81020299
 H     19  18  16     2.066078320079   109.30234224   278.95418838
 H     19  18  16     2.066326420139   110.28604407   158.48314961
 H      3   2   1     2.055688916523   119.31296221   180.11242395
 H      1   2   3     2.054782482647   119.40690022   179.40667058
 H      2   1   3     2.054406166960   120.06323753   180.27483661
 H      8   7   3     2.055399533590   120.31055104     0.16142085
 H      9   8   7     2.055034018920   119.74765730   179.94543627
 H     13  12  10     2.057266836160   124.22340166   179.68340741
 H     14  13  12     2.054364173966   121.23031209   179.97676646
 H     15  14  13     2.054295184468   122.52229167   180.08327656
 H     12  10   5     1.928330139694   100.64986768   345.44114232

---------------------
BASIS SET INFORMATION
---------------------
There are 4 groups of distinct atoms

 Group   1 Type C   : 11s6p2d contracted to 5s3p2d pattern {62111/411/11}
 Group   2 Type O   : 11s6p2d contracted to 5s3p2d pattern {62111/411/11}
 Group   3 Type N   : 11s6p2d contracted to 5s3p2d pattern {62111/411/11}
 Group   4 Type H   : 5s1p contracted to 3s1p pattern {311/1}

Atom   0C    basis set group =>   1
Atom   1C    basis set group =>   1
Atom   2C    basis set group =>   1
Atom   3C    basis set group =>   1
Atom   4C    basis set group =>   1
Atom   5O    basis set group =>   2
Atom   6C    basis set group =>   1
Atom   7C    basis set group =>   1
Atom   8C    basis set group =>   1
Atom   9C    basis set group =>   1
Atom  10C    basis set group =>   1
Atom  11N    basis set group =>   3
Atom  12C    basis set group =>   1
Atom  13C    basis set group =>   1
Atom  14C    basis set group =>   1
Atom  15C    basis set group =>   1
Atom  16O    basis set group =>   2
Atom  17N    basis set group =>   3
Atom  18C    basis set group =>   1
Atom  19C    basis set group =>   1
Atom  20H    basis set group =>   4
Atom  21H    basis set group =>   4
Atom  22H    basis set group =>   4
Atom  23H    basis set group =>   4
Atom  24H    basis set group =>   4
Atom  25H    basis set group =>   4
Atom  26H    basis set group =>   4
Atom  27H    basis set group =>   4
Atom  28H    basis set group =>   4
Atom  29H    basis set group =>   4
Atom  30H    basis set group =>   4
Atom  31H    basis set group =>   4
Atom  32H    basis set group =>   4
Atom  33H    basis set group =>   4
Atom  34H    basis set group =>   4
---------------------------------
AUXILIARY/J BASIS SET INFORMATION
---------------------------------
There are 4 groups of distinct atoms

 Group   1 Type C   : 12s5p4d2f1g contracted to 6s4p3d1f1g pattern {711111/2111/211/2/1}
 Group   2 Type O   : 12s5p4d2f1g contracted to 6s4p3d1f1g pattern {711111/2111/211/2/1}
 Group   3 Type N   : 12s5p4d2f1g contracted to 6s4p3d1f1g pattern {711111/2111/211/2/1}
 Group   4 Type H   : 5s2p1d contracted to 3s1p1d pattern {311/2/1}

Atom   0C    basis set group =>   1
Atom   1C    basis set group =>   1
Atom   2C    basis set group =>   1
Atom   3C    basis set group =>   1
Atom   4C    basis set group =>   1
Atom   5O    basis set group =>   2
Atom   6C    basis set group =>   1
Atom   7C    basis set group =>   1
Atom   8C    basis set group =>   1
Atom   9C    basis set group =>   1
Atom  10C    basis set group =>   1
Atom  11N    basis set group =>   3
Atom  12C    basis set group =>   1
Atom  13C    basis set group =>   1
Atom  14C    basis set group =>   1
Atom  15C    basis set group =>   1
Atom  16O    basis set group =>   2
Atom  17N    basis set group =>   3
Atom  18C    basis set group =>   1
Atom  19C    basis set group =>   1
Atom  20H    basis set group =>   4
Atom  21H    basis set group =>   4
Atom  22H    basis set group =>   4
Atom  23H    basis set group =>   4
Atom  24H    basis set group =>   4
Atom  25H    basis set group =>   4
Atom  26H    basis set group =>   4
Atom  27H    basis set group =>   4
Atom  28H    basis set group =>   4
Atom  29H    basis set group =>   4
Atom  30H    basis set group =>   4
Atom  31H    basis set group =>   4
Atom  32H    basis set group =>   4
Atom  33H    basis set group =>   4
Atom  34H    basis set group =>   4
---------------------------------
AUXILIARY/C BASIS SET INFORMATION
---------------------------------
There are 4 groups of distinct atoms

 Group   1 Type C   : 8s6p5d3f1g contracted to 8s6p4d3f1g pattern {11111111/111111/2111/111/1}
 Group   2 Type O   : 8s6p5d3f1g contracted to 8s6p4d3f1g pattern {11111111/111111/2111/111/1}
 Group   3 Type N   : 8s6p5d3f1g contracted to 8s6p4d3f1g pattern {11111111/111111/2111/111/1}
 Group   4 Type H   : 4s3p2d contracted to 4s2p1d pattern {1111/21/2}

Atom   0C    basis set group =>   1
Atom   1C    basis set group =>   1
Atom   2C    basis set group =>   1
Atom   3C    basis set group =>   1
Atom   4C    basis set group =>   1
Atom   5O    basis set group =>   2
Atom   6C    basis set group =>   1
Atom   7C    basis set group =>   1
Atom   8C    basis set group =>   1
Atom   9C    basis set group =>   1
Atom  10C    basis set group =>   1
Atom  11N    basis set group =>   3
Atom  12C    basis set group =>   1
Atom  13C    basis set group =>   1
Atom  14C    basis set group =>   1
Atom  15C    basis set group =>   1
Atom  16O    basis set group =>   2
Atom  17N    basis set group =>   3
Atom  18C    basis set group =>   1
Atom  19C    basis set group =>   1
Atom  20H    basis set group =>   4
Atom  21H    basis set group =>   4
Atom  22H    basis set group =>   4
Atom  23H    basis set group =>   4
Atom  24H    basis set group =>   4
Atom  25H    basis set group =>   4
Atom  26H    basis set group =>   4
Atom  27H    basis set group =>   4
Atom  28H    basis set group =>   4
Atom  29H    basis set group =>   4
Atom  30H    basis set group =>   4
Atom  31H    basis set group =>   4
Atom  32H    basis set group =>   4
Atom  33H    basis set group =>   4
Atom  34H    basis set group =>   4
------------------------------------------------------------------------------
                           ORCA GTO INTEGRAL CALCULATION
                           -- RI-GTO INTEGRALS CHOSEN --
------------------------------------------------------------------------------
------------------------------------------------------------------------------
                   ___                                                        
                  /   \      - P O W E R E D   B Y -                         
                 /     \                                                     
                 |  |  |   _    _      __       _____    __    __             
                 |  |  |  | |  | |    /  \     |  _  \  |  |  /  |          
                  \  \/   | |  | |   /    \    | | | |  |  | /  /          
                 / \  \   | |__| |  /  /\  \   | |_| |  |  |/  /          
                |  |  |   |  __  | /  /__\  \  |    /   |      \           
                |  |  |   | |  | | |   __   |  |    \   |  |\   \          
                \     /   | |  | | |  |  |  |  | |\  \  |  | \   \       
                 \___/    |_|  |_| |__|  |__|  |_| \__\ |__|  \__/        
                                                                              
                      - O R C A' S   B I G   F R I E N D -                    
                                      &                                       
                       - I N T E G R A L  F E E D E R -                       
                                                                              
 v1 FN, 2020, v2 2021                                                         
------------------------------------------------------------------------------


Reading SHARK input file HBQ-H.SHARKINP.tmp ... ok
----------------------
SHARK INTEGRAL PACKAGE
----------------------

Number of atoms                             ...     35
Number of basis functions                   ...    570
Number of shells                            ...    260
Maximum angular momentum                    ...      2
Integral batch strategy                     ... SHARK/LIBINT Hybrid
RI-J (if used) integral strategy            ... SPLIT-RIJ (Revised 2003 algorithm where possible)
Printlevel                                  ...      1
Contraction scheme used                     ... SEGMENTED contraction
Coulomb Range Separation                    ... NOT USED
Exchange Range Separation                   ... NOT USED
Finite Nucleus Model                        ... NOT USED
Auxiliary Coulomb fitting basis             ... AVAILABLE
   # of basis functions in Aux-J            ...   1145
   # of shells in Aux-J                     ...    375
   Maximum angular momentum in Aux-J        ...      4
Auxiliary J/K fitting basis                 ... NOT available
Auxiliary Correlation fitting basis         ... AVAILABLE
   # of basis functions in Aux-C            ...   1745
   # of shells in Aux-C                     ...    545
   Maximum angular momentum in Aux-C        ...      4
Auxiliary 'external' fitting basis          ... NOT available
Integral threshold                          ...     2.500000e-11
Primitive cut-off                           ...     2.500000e-12
Primitive pair pre-selection threshold      ...     2.500000e-12

Calculating pre-screening integrals         ... done (  0.1 sec) Dimension = 260
Organizing shell pair data                  ... done (  2.5 sec)
Shell pair information
Total number of shell pairs                 ...     33930
Shell pairs after pre-screening             ...     26323
Total number of primitive shell pairs       ...    111170
Primitive shell pairs kept                  ...     57354
          la=0 lb=0:   7761 shell pairs
          la=1 lb=0:   8649 shell pairs
          la=1 lb=1:   2410 shell pairs
          la=2 lb=0:   4387 shell pairs
          la=2 lb=1:   2462 shell pairs
          la=2 lb=2:    654 shell pairs

Calculating one electron integrals          ... done (  0.2 sec)
Calculating RI/J V-Matrix + Cholesky decomp.... done (  4.3 sec)
Calculating RI/C V-Matrix + Cholesky decomp.... done (  3.2 sec)
Calculating Nuclear repulsion               ... done (  0.0 sec) ENN=   1554.997059682411 Eh

SHARK setup successfully completed in  26.5 seconds

Maximum memory used throughout the entire GTOINT-calculation: 198.2 MB
-------------------------------------------------------------------------------
                                 ORCA SCF
-------------------------------------------------------------------------------

------------
SCF SETTINGS
------------
Hamiltonian:
 Density Functional     Method          .... DFT(GTOs)
 Exchange Functional    Exchange        .... B88
   X-Alpha parameter    XAlpha          ....  0.666667
   Becke's b parameter  XBeta           ....  0.004200
 Correlation Functional Correlation     .... LYP
 LDA part of GGA corr.  LDAOpt          .... VWN-3
 Gradients option       PostSCFGGA      .... off
 Hybrid DFT is turned on
   Fraction HF Exchange ScalHFX         ....  0.200000
   Scaling of DF-GGA-X  ScalDFX         ....  0.720000
   Scaling of DF-GGA-C  ScalDFC         ....  0.810000
   Scaling of DF-LDA-C  ScalLDAC        ....  1.000000
   Perturbative correction              ....  0.000000
   Density functional embedding theory  .... OFF
   NL short-range parameter             ....  4.800000
 RI-approximation to the Coulomb term is turned on
   Number of AuxJ basis functions       .... 1145
   RIJ-COSX (HFX calculated with COS-X)).... on


General Settings:
 Integral files         IntName         .... HBQ-H
 Hartree-Fock type      HFTyp           .... RHF
 Total Charge           Charge          ....    1
 Multiplicity           Mult            ....    1
 Number of Electrons    NEL             ....  140
 Basis Dimension        Dim             ....  570
 Nuclear Repulsion      ENuc            ....   1554.9970596824 Eh

Convergence Acceleration:
 DIIS                   CNVDIIS         .... on
   Start iteration      DIISMaxIt       ....    12
   Startup error        DIISStart       ....  0.200000
   # of expansion vecs  DIISMaxEq       ....     5
   Bias factor          DIISBfac        ....   1.050
   Max. coefficient     DIISMaxC        ....  10.000
 Trust-Rad. Augm. Hess. CNVTRAH         .... auto
   Auto Start mean grad. ratio tolernc. ....  1.125000
   Auto Start start iteration           ....    20
   Auto Start num. interpolation iter.  ....    10
   Max. Number of Micro iterations      ....    16
   Max. Number of Macro iterations      .... Maxiter - #DIIS iter
   Number of Davidson start vectors     ....     2
   Converg. threshold I  (grad. norm)   ....   1.000e-05
   Converg. threshold II (energy diff.) ....   1.000e-08
   Grad. Scal. Fac. for Micro threshold ....   0.100
   Minimum threshold for Micro iter.    ....   0.010
   NR start threshold (gradient norm)   ....   0.001
   Initial trust radius                 ....   0.400
   Minimum AH scaling param. (alpha)    ....   1.000
   Maximum AH scaling param. (alpha)    .... 1000.000
   Orbital update algorithm             .... Taylor
   White noise on init. David. guess    .... on
   Maximum white noise                  ....   0.010
   Quad. conv. algorithm                .... NR
 SOSCF                  CNVSOSCF        .... on
   Start iteration      SOSCFMaxIt      ....   150
   Startup grad/error   SOSCFStart      ....  0.003300
 Level Shifting         CNVShift        .... on
   Level shift para.    LevelShift      ....    0.2500
   Turn off err/grad.   ShiftErr        ....    0.0010
 Zerner damping         CNVZerner       .... off
 Static damping         CNVDamp         .... on
   Fraction old density DampFac         ....    0.7000
   Max. Damping (<1)    DampMax         ....    0.9800
   Min. Damping (>=0)   DampMin         ....    0.0000
   Turn off err/grad.   DampErr         ....    0.1000
 Fernandez-Rico         CNVRico         .... off

SCF Procedure:
 Maximum # iterations   MaxIter         ....   125
 SCF integral mode      SCFMode         .... Direct
   Integral package                     .... SHARK and LIBINT hybrid scheme
 Reset frequency        DirectResetFreq ....    20
 Integral Threshold     Thresh          ....  2.500e-11 Eh
 Primitive CutOff       TCut            ....  2.500e-12 Eh

Convergence Tolerance:
 Convergence Check Mode ConvCheckMode   .... Total+1el-Energy
 Convergence forced     ConvForced      .... 0
 Energy Change          TolE            ....  1.000e-08 Eh
 1-El. energy change                    ....  1.000e-05 Eh
 Orbital Gradient       TolG            ....  1.000e-05
 Orbital Rotation angle TolX            ....  1.000e-05
 DIIS Error             TolErr          ....  5.000e-07


Diagonalization of the overlap matrix:
Smallest eigenvalue                        ... 3.122e-06
Time for diagonalization                   ...    0.041 sec
Threshold for overlap eigenvalues          ... 1.000e-08
Number of eigenvalues below threshold      ... 0
Time for construction of square roots      ...    0.200 sec
Total time needed                          ...    0.241 sec

Time for model grid setup =    2.357 sec

------------------------------
INITIAL GUESS: MODEL POTENTIAL
------------------------------
Loading Hartree-Fock densities                     ... done
Calculating cut-offs                               ... done
Initializing the effective Hamiltonian             ... done
Setting up the integral package (SHARK)            ... done
Starting the Coulomb interaction                   ... done (   4.1 sec)
Reading the grid                                   ... done
Mapping shells                                     ... done
Starting the XC term evaluation                    ... done (   1.3 sec)
  promolecular density results
     # of electrons  =    140.991370704
     EX              =   -116.619181201
     EC              =     -4.835929254
     EX+EC           =   -121.455110456
Transforming the Hamiltonian                       ... done (   0.1 sec)
Diagonalizing the Hamiltonian                      ... done (   0.0 sec)
Back transforming the eigenvectors                 ... done (   0.0 sec)
Now organizing SCF variables                       ... done
                      ------------------
                      INITIAL GUESS DONE (   8.8 sec)
                      ------------------
-------------------
DFT GRID GENERATION
-------------------

General Integration Accuracy     IntAcc      ... 4.388
Radial Grid Type                 RadialGrid  ... OptM3 with GC (2021)
Angular Grid (max. ang.)         AngularGrid ... 4 (Lebedev-302)
Angular grid pruning method      GridPruning ... 4 (adaptive)
Weight generation scheme         WeightScheme... Becke
Basis function cutoff            BFCut       ... 1.0000e-11
Integration weight cutoff        WCut        ... 1.0000e-14
Angular grids for H and He will be reduced by one unit
Partially contracted basis set               ... off
Rotationally invariant grid construction     ... off

Total number of grid points                  ...   166974
Total number of batches                      ...     2627
Average number of points per batch           ...       63
Average number of grid points per atom       ...     4771
Time for grid setup =    6.049 sec

--------------------
COSX GRID GENERATION
--------------------

GRIDX 1
-------
General Integration Accuracy     IntAcc      ... 3.816
Radial Grid Type                 RadialGrid  ... OptM3 with GC (2021)
Angular Grid (max. ang.)         AngularGrid ... 1 (Lebedev-50)
Angular grid pruning method      GridPruning ... 4 (adaptive)
Weight generation scheme         WeightScheme... Becke
Basis function cutoff            BFCut       ... 1.0000e-11
Integration weight cutoff        WCut        ... 1.0000e-14
Angular grids for H and He will be reduced by one unit
Partially contracted basis set               ... on
Rotationally invariant grid construction     ... off

Total number of grid points                  ...    21227
Total number of batches                      ...      346
Average number of points per batch           ...       61
Average number of grid points per atom       ...      606
UseSFitting                                  ... on

GRIDX 2
-------
General Integration Accuracy     IntAcc      ... 4.020
Radial Grid Type                 RadialGrid  ... OptM3 with GC (2021)
Angular Grid (max. ang.)         AngularGrid ... 2 (Lebedev-110)
Angular grid pruning method      GridPruning ... 4 (adaptive)
Weight generation scheme         WeightScheme... Becke
Basis function cutoff            BFCut       ... 1.0000e-11
Integration weight cutoff        WCut        ... 1.0000e-14
Angular grids for H and He will be reduced by one unit
Partially contracted basis set               ... on
Rotationally invariant grid construction     ... off

Total number of grid points                  ...    46072
Total number of batches                      ...      738
Average number of points per batch           ...       62
Average number of grid points per atom       ...     1316
UseSFitting                                  ... on

GRIDX 3
-------
General Integration Accuracy     IntAcc      ... 4.338
Radial Grid Type                 RadialGrid  ... OptM3 with GC (2021)
Angular Grid (max. ang.)         AngularGrid ... 3 (Lebedev-194)
Angular grid pruning method      GridPruning ... 4 (adaptive)
Weight generation scheme         WeightScheme... Becke
Basis function cutoff            BFCut       ... 1.0000e-11
Integration weight cutoff        WCut        ... 1.0000e-14
Angular grids for H and He will be reduced by one unit
Partially contracted basis set               ... on
Rotationally invariant grid construction     ... off

Total number of grid points                  ...   100862
Total number of batches                      ...     1595
Average number of points per batch           ...       63
Average number of grid points per atom       ...     2882
UseSFitting                                  ... on

Time for X-Grid setup             =   13.621 sec


--------------------
CPCM SOLVATION MODEL
--------------------
CPCM parameters:
  Epsilon                                         ...      80.4000
  Refrac                                          ...       1.3300
  Rsolv                                           ...       1.3000
  Surface type                                    ... GAUSSIAN VDW
  Epsilon function type                           ...         CPCM
Radii:
 Radius for C  used is    3.8550 Bohr (=   2.0400 Ang.)
 Radius for O  used is    3.4469 Bohr (=   1.8240 Ang.)
 Radius for N  used is    3.5149 Bohr (=   1.8600 Ang.)
 Radius for H  used is    2.4944 Bohr (=   1.3200 Ang.)
Calculating surface                               ...        done! (  0.0s)
GEPOL surface points                              ...         1822
GEPOL Volume                                      ...    2093.9371
GEPOL Surface-area                                ...    1053.9480
Calculating surface distance matrix               ...        done! (  0.0s)
Performing Cholesky decomposition & store         ...        done! (  3.2s)
Overall time for CPCM initialization              ...                 3.2s
--------------
SCF ITERATIONS
--------------
ITER       Energy         Delta-E        Max-DP      RMS-DP      [F,P]     Damp
               ***  Starting incremental Fock matrix formation  ***
  0   -878.2204647966   0.000000000000 0.09026258  0.00129516  0.3014930 0.7000
  1   -878.4419546154  -0.221489818823 0.07737145  0.00098665  0.1108503 0.7000
                               ***Turning on DIIS***
  2   -878.5301753777  -0.088220762283 0.21851296  0.00202171  0.0454687 0.0000
  3   -878.6736959826  -0.143520604986 0.02454979  0.00057325  0.0546238 0.0000
  4   -878.7014358156  -0.027739832957 0.02904654  0.00027878  0.0184169 0.0000
  5   -878.7032261584  -0.001790342795 0.00397479  0.00007392  0.0100792 0.0000
                      *** Initiating the SOSCF procedure ***
                           *** Shutting down DIIS ***
                      *** Re-Reading the Fockian *** 
                      *** Removing any level shift *** 
ITER      Energy       Delta-E        Grad      Rot      Max-DP    RMS-DP
  6   -878.70337975  -0.0001535942  0.000256  0.000256  0.003534  0.000033
               *** Restarting incremental Fock matrix formation ***
  7   -878.70339954  -0.0000197839  0.000104  0.000432  0.003596  0.000036
  8   -878.70339934   0.0000001970  0.000202  0.000300  0.000914  0.000008
  9   -878.70340150  -0.0000021578  0.000036  0.000087  0.000703  0.000007
 10   -878.70340146   0.0000000356  0.000036  0.000047  0.000256  0.000003
 11   -878.70340156  -0.0000000958  0.000006  0.000020  0.000345  0.000003
 12   -878.70340155   0.0000000045  0.000008  0.000010  0.000242  0.000002
                  ***Gradient check signals convergence***
              ***Rediagonalizing the Fockian in SOSCF/NRSCF***

               *****************************************************
               *                     SUCCESS                       *
               *           SCF CONVERGED AFTER  13 CYCLES          *
               *****************************************************

Old exchange energy                            =    -23.643468152 Eh
New exchange energy                            =    -23.643477271 Eh
Exchange energy change after final integration =     -0.000009119 Eh
Total energy after final integration           =   -878.703410667 Eh
Final COS-X integration done in                =   107.340 sec

----------------
TOTAL SCF ENERGY
----------------

Total Energy       :         -878.70341067 Eh          -23910.73540 eV

Components:
Nuclear Repulsion  :         1554.99705968 Eh           42313.62118 eV
Electronic Energy  :        -2433.70047035 Eh          -66224.35658 eV
One Electron Energy:        -4259.13924670 Eh         -115897.07100 eV
Two Electron Energy:         1825.43877635 Eh           49672.71442 eV
Max COSX asymmetry :            0.00000183 Eh               0.00005 eV
CPCM Dielectric    :           -0.09308881 Eh              -2.53308 eV

Virial components:
Potential Energy   :        -1755.06093910 Eh          -47757.63610 eV
Kinetic Energy     :          876.35752843 Eh           23846.90070 eV
Virial Ratio       :            2.00267686


DFT components:
N(Alpha)           :       70.000064410732 electrons
N(Beta)            :       70.000064410732 electrons
N(Total)           :      140.000128821464 electrons
E(X)               :      -93.974399704459 Eh       
E(C)               :       -6.177615722424 Eh       
E(XC)              :     -100.152015426883 Eh       
DFET-embed. en.    :        0.000000000000 Eh       
CPCM Solvation Model Properties:
Surface-charge          :           -1.02665975
Charge-correction       :            0.00254493 Eh               0.06925 eV
Free-energy (cav+disp)  :  This term is not implemented in the current solvation scheme

---------------
SCF CONVERGENCE
---------------

  Last Energy change         ...    4.6024e-09  Tolerance :   1.0000e-08
  Last MAX-Density change    ...    2.3315e-15  Tolerance :   1.0000e-07
  Last RMS-Density change    ...    1.7732e-17  Tolerance :   5.0000e-09
  Last Orbital Gradient      ...    1.6815e-06  Tolerance :   1.0000e-05
  Last Orbital Rotation      ...    6.4931e-06  Tolerance :   1.0000e-05

             **** THE GBW FILE WAS UPDATED (HBQ-H.gbw) ****
             **** DENSITY HBQ-H.scfp WAS UPDATED ****
             **** ENERGY FILE WAS UPDATED (HBQ-H.en.tmp) ****
             **** THE GBW FILE WAS UPDATED (HBQ-H.gbw) ****
             **** DENSITY HBQ-H.scfp WAS UPDATED ****
----------------
ORBITAL ENERGIES
----------------

  NO   OCC          E(Eh)            E(eV) 
   0   2.0000     -19.212944      -522.8108 
   1   2.0000     -19.118581      -520.2431 
   2   2.0000     -14.416112      -392.2824 
   3   2.0000     -14.363779      -390.8583 
   4   2.0000     -10.343749      -281.4677 
   5   2.0000     -10.278845      -279.7016 
   6   2.0000     -10.252024      -278.9718 
   7   2.0000     -10.243101      -278.7289 
   8   2.0000     -10.226578      -278.2793 
   9   2.0000     -10.223068      -278.1838 
  10   2.0000     -10.219164      -278.0776 
  11   2.0000     -10.214491      -277.9504 
  12   2.0000     -10.214412      -277.9483 
  13   2.0000     -10.209259      -277.8081 
  14   2.0000     -10.204623      -277.6819 
  15   2.0000     -10.203889      -277.6619 
  16   2.0000     -10.201614      -277.6000 
  17   2.0000     -10.199608      -277.5454 
  18   2.0000     -10.198561      -277.5170 
  19   2.0000     -10.195741      -277.4402 
  20   2.0000      -1.164810       -31.6961 
  21   2.0000      -1.146089       -31.1867 
  22   2.0000      -1.052194       -28.6316 
  23   2.0000      -0.947308       -25.7776 
  24   2.0000      -0.929451       -25.2917 
  25   2.0000      -0.889691       -24.2097 
  26   2.0000      -0.878414       -23.9029 
  27   2.0000      -0.829100       -22.5610 
  28   2.0000      -0.794421       -21.6173 
  29   2.0000      -0.773471       -21.0472 
  30   2.0000      -0.730782       -19.8856 
  31   2.0000      -0.724706       -19.7202 
  32   2.0000      -0.713195       -19.4070 
  33   2.0000      -0.710860       -19.3435 
  34   2.0000      -0.687062       -18.6959 
  35   2.0000      -0.666775       -18.1439 
  36   2.0000      -0.627463       -17.0741 
  37   2.0000      -0.609755       -16.5923 
  38   2.0000      -0.570901       -15.5350 
  39   2.0000      -0.565344       -15.3838 
  40   2.0000      -0.558726       -15.2037 
  41   2.0000      -0.547273       -14.8921 
  42   2.0000      -0.528475       -14.3805 
  43   2.0000      -0.520424       -14.1615 
  44   2.0000      -0.503880       -13.7113 
  45   2.0000      -0.499487       -13.5917 
  46   2.0000      -0.494806       -13.4644 
  47   2.0000      -0.486261       -13.2318 
  48   2.0000      -0.469497       -12.7757 
  49   2.0000      -0.459011       -12.4903 
  50   2.0000      -0.452594       -12.3157 
  51   2.0000      -0.446159       -12.1406 
  52   2.0000      -0.440052       -11.9744 
  53   2.0000      -0.427314       -11.6278 
  54   2.0000      -0.425738       -11.5849 
  55   2.0000      -0.414591       -11.2816 
  56   2.0000      -0.406799       -11.0696 
  57   2.0000      -0.405010       -11.0209 
  58   2.0000      -0.392429       -10.6785 
  59   2.0000      -0.384440       -10.4612 
  60   2.0000      -0.382520       -10.4089 
  61   2.0000      -0.375617       -10.2211 
  62   2.0000      -0.368579       -10.0296 
  63   2.0000      -0.340164        -9.2563 
  64   2.0000      -0.338828        -9.2200 
  65   2.0000      -0.309240        -8.4148 
  66   2.0000      -0.308369        -8.3912 
  67   2.0000      -0.275911        -7.5079 
  68   2.0000      -0.259984        -7.0745 
  69   2.0000      -0.244717        -6.6591 
  70   0.0000      -0.089726        -2.4416 
  71   0.0000      -0.079657        -2.1676 
  72   0.0000      -0.035622        -0.9693 
  73   0.0000      -0.013137        -0.3575 
  74   0.0000       0.008969         0.2441 
  75   0.0000       0.022777         0.6198 
  76   0.0000       0.037829         1.0294 
  77   0.0000       0.043621         1.1870 
  78   0.0000       0.054142         1.4733 
  79   0.0000       0.059661         1.6234 
  80   0.0000       0.066849         1.8191 
  81   0.0000       0.071545         1.9468 
  82   0.0000       0.081850         2.2273 
  83   0.0000       0.085033         2.3139 
  84   0.0000       0.087807         2.3894 
  85   0.0000       0.094746         2.5782 
  86   0.0000       0.096105         2.6151 
  87   0.0000       0.101372         2.7585 
  88   0.0000       0.105432         2.8689 
  89   0.0000       0.111008         3.0207 
  90   0.0000       0.118410         3.2221 
  91   0.0000       0.121925         3.3177 
  92   0.0000       0.126103         3.4314 
  93   0.0000       0.137520         3.7421 
  94   0.0000       0.141755         3.8574 
  95   0.0000       0.145807         3.9676 
  96   0.0000       0.151944         4.1346 
  97   0.0000       0.160571         4.3694 
  98   0.0000       0.166912         4.5419 
  99   0.0000       0.167651         4.5620 
 100   0.0000       0.171637         4.6705 
 101   0.0000       0.184012         5.0072 
 102   0.0000       0.190916         5.1951 
 103   0.0000       0.199944         5.4408 
 104   0.0000       0.201966         5.4958 
 105   0.0000       0.208148         5.6640 
 106   0.0000       0.217732         5.9248 
 107   0.0000       0.220560         6.0018 
 108   0.0000       0.224375         6.1055 
 109   0.0000       0.230393         6.2693 
 110   0.0000       0.231535         6.3004 
 111   0.0000       0.235775         6.4158 
 112   0.0000       0.237479         6.4621 
 113   0.0000       0.239954         6.5295 
 114   0.0000       0.244488         6.6529 
 115   0.0000       0.248497         6.7620 
 116   0.0000       0.256780         6.9873 
 117   0.0000       0.259230         7.0540 
 118   0.0000       0.269079         7.3220 
 119   0.0000       0.272752         7.4220 
 120   0.0000       0.283952         7.7267 
 121   0.0000       0.286006         7.7826 
 122   0.0000       0.289379         7.8744 
 123   0.0000       0.293595         7.9891 
 124   0.0000       0.295951         8.0532 
 125   0.0000       0.298390         8.1196 
 126   0.0000       0.306879         8.3506 
 127   0.0000       0.310399         8.4464 
 128   0.0000       0.314147         8.5484 
 129   0.0000       0.323788         8.8107 
 130   0.0000       0.331932         9.0323 
 131   0.0000       0.334171         9.0932 
 132   0.0000       0.339654         9.2424 
 133   0.0000       0.342566         9.3217 
 134   0.0000       0.345907         9.4126 
 135   0.0000       0.352245         9.5851 
 136   0.0000       0.357421         9.7259 
 137   0.0000       0.373790        10.1713 
 138   0.0000       0.378521        10.3001 
 139   0.0000       0.381583        10.3834 
 140   0.0000       0.382253        10.4016 
 141   0.0000       0.387065        10.5326 
 142   0.0000       0.391136        10.6433 
 143   0.0000       0.396722        10.7953 
 144   0.0000       0.402645        10.9565 
 145   0.0000       0.407191        11.0802 
 146   0.0000       0.409208        11.1351 
 147   0.0000       0.417440        11.3591 
 148   0.0000       0.419511        11.4155 
 149   0.0000       0.422214        11.4890 
 150   0.0000       0.427236        11.6257 
 151   0.0000       0.436432        11.8759 
 152   0.0000       0.444397        12.0927 
 153   0.0000       0.447731        12.1834 
 154   0.0000       0.451498        12.2859 
 155   0.0000       0.459679        12.5085 
 156   0.0000       0.467913        12.7326 
 157   0.0000       0.469588        12.7781 
 158   0.0000       0.474140        12.9020 
 159   0.0000       0.475424        12.9370 
 160   0.0000       0.482583        13.1318 
 161   0.0000       0.484430        13.1820 
 162   0.0000       0.494382        13.4528 
 163   0.0000       0.496682        13.5154 
 164   0.0000       0.499058        13.5800 
 165   0.0000       0.501278        13.6405 
 166   0.0000       0.510721        13.8974 
 167   0.0000       0.514053        13.9881 
 168   0.0000       0.524111        14.2618 
 169   0.0000       0.527035        14.3413 
 170   0.0000       0.531310        14.4577 
 171   0.0000       0.537136        14.6162 
 172   0.0000       0.547421        14.8961 
 173   0.0000       0.549924        14.9642 
 174   0.0000       0.562493        15.3062 
 175   0.0000       0.563215        15.3259 
 176   0.0000       0.569557        15.4984 
 177   0.0000       0.584779        15.9127 
 178   0.0000       0.586960        15.9720 
 179   0.0000       0.591094        16.0845 
 180   0.0000       0.601916        16.3790 
 181   0.0000       0.609931        16.5971 
 182   0.0000       0.622249        16.9323 
 183   0.0000       0.625612        17.0238 
 184   0.0000       0.633925        17.2500 
 185   0.0000       0.639232        17.3944 
 186   0.0000       0.647348        17.6152 
 187   0.0000       0.652443        17.7539 
 188   0.0000       0.657826        17.9004 
 189   0.0000       0.664795        18.0900 
 190   0.0000       0.667525        18.1643 
 191   0.0000       0.676251        18.4017 
 192   0.0000       0.682040        18.5593 
 193   0.0000       0.689944        18.7743 
 194   0.0000       0.694892        18.9090 
 195   0.0000       0.705346        19.1934 
 196   0.0000       0.716700        19.5024 
 197   0.0000       0.721230        19.6257 
 198   0.0000       0.726728        19.7753 
 199   0.0000       0.729660        19.8551 
 200   0.0000       0.742444        20.2029 
 201   0.0000       0.744243        20.2519 
 202   0.0000       0.747991        20.3539 
 203   0.0000       0.752408        20.4741 
 204   0.0000       0.761556        20.7230 
 205   0.0000       0.769469        20.9383 
 206   0.0000       0.774259        21.0686 
 207   0.0000       0.782189        21.2844 
 208   0.0000       0.789046        21.4710 
 209   0.0000       0.797197        21.6928 
 210   0.0000       0.799698        21.7609 
 211   0.0000       0.814833        22.1727 
 212   0.0000       0.817001        22.2317 
 213   0.0000       0.826455        22.4890 
 214   0.0000       0.827720        22.5234 
 215   0.0000       0.835150        22.7256 
 216   0.0000       0.841839        22.9076 
 217   0.0000       0.854119        23.2417 
 218   0.0000       0.867332        23.6013 
 219   0.0000       0.870540        23.6886 
 220   0.0000       0.874953        23.8087 
 221   0.0000       0.879465        23.9315 
 222   0.0000       0.891903        24.2699 
 223   0.0000       0.906112        24.6566 
 224   0.0000       0.914433        24.8830 
 225   0.0000       0.918340        24.9893 
 226   0.0000       0.922271        25.0963 
 227   0.0000       0.931766        25.3546 
 228   0.0000       0.950774        25.8719 
 229   0.0000       0.962442        26.1894 
 230   0.0000       0.965748        26.2793 
 231   0.0000       0.968572        26.3562 
 232   0.0000       0.980659        26.6851 
 233   0.0000       0.991305        26.9748 
 234   0.0000       0.998167        27.1615 
 235   0.0000       1.008364        27.4390 
 236   0.0000       1.012324        27.5467 
 237   0.0000       1.019339        27.7376 
 238   0.0000       1.026126        27.9223 
 239   0.0000       1.046255        28.4700 
 240   0.0000       1.049789        28.5662 
 241   0.0000       1.052040        28.6275 
 242   0.0000       1.061903        28.8959 
 243   0.0000       1.071170        29.1480 
 244   0.0000       1.077305        29.3150 
 245   0.0000       1.097511        29.8648 
 246   0.0000       1.101103        29.9625 
 247   0.0000       1.118198        30.4277 
 248   0.0000       1.125043        30.6140 
 249   0.0000       1.141253        31.0551 
 250   0.0000       1.159755        31.5586 
 251   0.0000       1.164809        31.6961 
 252   0.0000       1.173081        31.9212 
 253   0.0000       1.176429        32.0122 
 254   0.0000       1.184888        32.2424 
 255   0.0000       1.195882        32.5416 
 256   0.0000       1.206186        32.8220 
 257   0.0000       1.208422        32.8828 
 258   0.0000       1.232826        33.5469 
 259   0.0000       1.238429        33.6994 
 260   0.0000       1.250810        34.0363 
 261   0.0000       1.256319        34.1862 
 262   0.0000       1.261608        34.3301 
 263   0.0000       1.276263        34.7289 
 264   0.0000       1.282307        34.8933 
 265   0.0000       1.293874        35.2081 
 266   0.0000       1.295443        35.2508 
 267   0.0000       1.313667        35.7467 
 268   0.0000       1.324472        36.0407 
 269   0.0000       1.326704        36.1015 
 270   0.0000       1.336696        36.3734 
 271   0.0000       1.343436        36.5567 
 272   0.0000       1.350646        36.7529 
 273   0.0000       1.357872        36.9496 
 274   0.0000       1.364573        37.1319 
 275   0.0000       1.383650        37.6510 
 276   0.0000       1.389471        37.8094 
 277   0.0000       1.397781        38.0355 
 278   0.0000       1.411574        38.4109 
 279   0.0000       1.416007        38.5315 
 280   0.0000       1.432626        38.9837 
 281   0.0000       1.443890        39.2902 
 282   0.0000       1.444805        39.3152 
 283   0.0000       1.451830        39.5063 
 284   0.0000       1.455847        39.6156 
 285   0.0000       1.468303        39.9546 
 286   0.0000       1.475841        40.1597 
 287   0.0000       1.481465        40.3127 
 288   0.0000       1.486393        40.4468 
 289   0.0000       1.496293        40.7162 
 290   0.0000       1.501122        40.8476 
 291   0.0000       1.515339        41.2345 
 292   0.0000       1.530690        41.6522 
 293   0.0000       1.535991        41.7964 
 294   0.0000       1.540472        41.9184 
 295   0.0000       1.541216        41.9386 
 296   0.0000       1.548579        42.1390 
 297   0.0000       1.558799        42.4171 
 298   0.0000       1.563276        42.5389 
 299   0.0000       1.567584        42.6561 
 300   0.0000       1.579833        42.9894 
 301   0.0000       1.581121        43.0245 
 302   0.0000       1.591641        43.3108 
 303   0.0000       1.600162        43.5426 
 304   0.0000       1.616775        43.9947 
 305   0.0000       1.619260        44.0623 
 306   0.0000       1.622787        44.1583 
 307   0.0000       1.627000        44.2729 
 308   0.0000       1.629966        44.3536 
 309   0.0000       1.634457        44.4758 
 310   0.0000       1.641014        44.6543 
 311   0.0000       1.653097        44.9830 
 312   0.0000       1.663296        45.2606 
 313   0.0000       1.669733        45.4357 
 314   0.0000       1.679299        45.6960 
 315   0.0000       1.688228        45.9390 
 316   0.0000       1.696755        46.1710 
 317   0.0000       1.709171        46.5089 
 318   0.0000       1.711680        46.5772 
 319   0.0000       1.721935        46.8562 
 320   0.0000       1.725453        46.9520 
 321   0.0000       1.739639        47.3380 
 322   0.0000       1.753356        47.7113 
 323   0.0000       1.765450        48.0403 
 324   0.0000       1.772472        48.2314 
 325   0.0000       1.777005        48.3548 
 326   0.0000       1.781093        48.4660 
 327   0.0000       1.796759        48.8923 
 328   0.0000       1.811498        49.2934 
 329   0.0000       1.823232        49.6127 
 330   0.0000       1.842471        50.1362 
 331   0.0000       1.846362        50.2421 
 332   0.0000       1.855195        50.4824 
 333   0.0000       1.876277        51.0561 
 334   0.0000       1.886691        51.3395 
 335   0.0000       1.892803        51.5058 
 336   0.0000       1.901207        51.7345 
 337   0.0000       1.915939        52.1353 
 338   0.0000       1.930474        52.5309 
 339   0.0000       1.949988        53.0619 
 340   0.0000       1.954419        53.1825 
 341   0.0000       1.962817        53.4110 
 342   0.0000       1.971625        53.6507 
 343   0.0000       1.980424        53.8901 
 344   0.0000       2.000952        54.4487 
 345   0.0000       2.007997        54.6404 
 346   0.0000       2.021215        55.0000 
 347   0.0000       2.035828        55.3977 
 348   0.0000       2.050525        55.7976 
 349   0.0000       2.069815        56.3225 
 350   0.0000       2.083521        56.6955 
 351   0.0000       2.084349        56.7180 
 352   0.0000       2.089062        56.8463 
 353   0.0000       2.094457        56.9931 
 354   0.0000       2.110466        57.4287 
 355   0.0000       2.146154        58.3998 
 356   0.0000       2.161030        58.8046 
 357   0.0000       2.178813        59.2885 
 358   0.0000       2.192383        59.6578 
 359   0.0000       2.203629        59.9638 
 360   0.0000       2.218767        60.3757 
 361   0.0000       2.220535        60.4238 
 362   0.0000       2.228119        60.6302 
 363   0.0000       2.236810        60.8667 
 364   0.0000       2.247652        61.1617 
 365   0.0000       2.272847        61.8473 
 366   0.0000       2.280525        62.0562 
 367   0.0000       2.292513        62.3825 
 368   0.0000       2.305206        62.7278 
 369   0.0000       2.314009        62.9674 
 370   0.0000       2.324534        63.2538 
 371   0.0000       2.328019        63.3486 
 372   0.0000       2.344175        63.7883 
 373   0.0000       2.357907        64.1619 
 374   0.0000       2.367830        64.4319 
 375   0.0000       2.372733        64.5654 
 376   0.0000       2.383086        64.8471 
 377   0.0000       2.393358        65.1266 
 378   0.0000       2.397481        65.2388 
 379   0.0000       2.410372        65.5896 
 380   0.0000       2.418622        65.8141 
 381   0.0000       2.420649        65.8692 
 382   0.0000       2.452205        66.7279 
 383   0.0000       2.468146        67.1617 
 384   0.0000       2.476975        67.4019 
 385   0.0000       2.481659        67.5294 
 386   0.0000       2.493051        67.8394 
 387   0.0000       2.494454        67.8775 
 388   0.0000       2.516503        68.4775 
 389   0.0000       2.519172        68.5502 
 390   0.0000       2.545834        69.2757 
 391   0.0000       2.561897        69.7128 
 392   0.0000       2.568938        69.9044 
 393   0.0000       2.585407        70.3525 
 394   0.0000       2.591961        70.5308 
 395   0.0000       2.598682        70.7137 
 396   0.0000       2.619591        71.2827 
 397   0.0000       2.625133        71.4335 
 398   0.0000       2.658988        72.3547 
 399   0.0000       2.663763        72.4847 
 400   0.0000       2.668899        72.6244 
 401   0.0000       2.685230        73.0688 
 402   0.0000       2.695493        73.3481 
 403   0.0000       2.702562        73.5404 
 404   0.0000       2.710317        73.7515 
 405   0.0000       2.718974        73.9870 
 406   0.0000       2.729269        74.2672 
 407   0.0000       2.741613        74.6031 
 408   0.0000       2.748543        74.7917 
 409   0.0000       2.762644        75.1754 
 410   0.0000       2.774966        75.5107 
 411   0.0000       2.785338        75.7929 
 412   0.0000       2.786885        75.8350 
 413   0.0000       2.804904        76.3253 
 414   0.0000       2.817915        76.6794 
 415   0.0000       2.827528        76.9409 
 416   0.0000       2.835060        77.1459 
 417   0.0000       2.841452        77.3198 
 418   0.0000       2.850913        77.5773 
 419   0.0000       2.861973        77.8783 
 420   0.0000       2.869350        78.0790 
 421   0.0000       2.873986        78.2051 
 422   0.0000       2.885894        78.5292 
 423   0.0000       2.894027        78.7505 
 424   0.0000       2.905348        79.0585 
 425   0.0000       2.918712        79.4222 
 426   0.0000       2.937180        79.9247 
 427   0.0000       2.941220        80.0347 
 428   0.0000       2.952451        80.3403 
 429   0.0000       2.953225        80.3613 
 430   0.0000       2.959986        80.5453 
 431   0.0000       2.972550        80.8872 
[...]
      pz      :     0.003666  p :     0.024397
      px      :     0.009062
      py      :     0.011670
 21 H s       :     0.824913  s :     0.824913
      pz      :     0.007861  p :     0.023040
      px      :     0.010540
      py      :     0.004639
 22 H s       :     0.830717  s :     0.830717
      pz      :     0.004090  p :     0.022948
      px      :     0.007076
      py      :     0.011782
 23 H s       :     0.825571  s :     0.825571
      pz      :     0.015846  p :     0.024582
      px      :     0.004440
      py      :     0.004297
 24 H s       :     0.834673  s :     0.834673
      pz      :     0.005795  p :     0.022914
      px      :     0.003896
      py      :     0.013223
 25 H s       :     0.832306  s :     0.832306
      pz      :     0.006684  p :     0.022911
      px      :     0.011628
      py      :     0.004598
 26 H s       :     0.851866  s :     0.851866
      pz      :     0.009755  p :     0.026374
      px      :     0.004964
      py      :     0.011655
 27 H s       :     0.847006  s :     0.847006
      pz      :     0.006244  p :     0.026595
      px      :     0.016581
      py      :     0.003770
 28 H s       :     0.849195  s :     0.849195
      pz      :     0.005267  p :     0.026086
      px      :     0.009111
      py      :     0.011708
 29 H s       :     0.851725  s :     0.851725
      pz      :     0.009616  p :     0.026282
      px      :     0.004573
      py      :     0.012093
 30 H s       :     0.853714  s :     0.853714
      pz      :     0.006410  p :     0.026512
      px      :     0.016332
      py      :     0.003771
 31 H s       :     0.789685  s :     0.789685
      pz      :     0.010088  p :     0.025957
      px      :     0.004685
      py      :     0.011184
 32 H s       :     0.821888  s :     0.821888
      pz      :     0.005411  p :     0.026842
      px      :     0.009467
      py      :     0.011964
 33 H s       :     0.824630  s :     0.824630
      pz      :     0.005920  p :     0.026130
      px      :     0.016621
      py      :     0.003590
 34 H s       :     0.697353  s :     0.697353
      pz      :     0.011564  p :     0.050511
      px      :     0.031716
      py      :     0.007231


                     *******************************
                     * LOEWDIN POPULATION ANALYSIS *
                     *******************************

----------------------
LOEWDIN ATOMIC CHARGES
----------------------
   0 C :   -0.078856
   1 C :   -0.096210
   2 C :   -0.079110
   3 C :   -0.116741
   4 C :   -0.024946
   5 O :    0.154974
   6 C :   -0.066235
   7 C :   -0.061120
   8 C :   -0.073114
   9 C :   -0.013558
  10 C :   -0.069665
  11 N :    0.223992
  12 C :   -0.035959
  13 C :   -0.091574
  14 C :   -0.004037
  15 C :   -0.341942
  16 O :   -0.069538
  17 N :    0.087713
  18 C :   -0.207900
  19 C :   -0.214285
  20 H :    0.120131
  21 H :    0.119229
  22 H :    0.115546
  23 H :    0.120567
  24 H :    0.117346
  25 H :    0.116199
  26 H :    0.151048
  27 H :    0.154708
  28 H :    0.149311
  29 H :    0.154656
  30 H :    0.154777
  31 H :    0.162707
  32 H :    0.159858
  33 H :    0.163277
  34 H :    0.218748

-------------------------------
LOEWDIN REDUCED ORBITAL CHARGES
-------------------------------
  0 C s       :     2.772073  s :     2.772073
      pz      :     0.948565  p :     2.950565
      px      :     0.995782
      py      :     1.006218
      dz2     :     0.049818  d :     0.356218
      dxz     :     0.056252
      dyz     :     0.064234
      dx2y2   :     0.106445
      dxy     :     0.079469
  1 C s       :     2.776719  s :     2.776719
      pz      :     0.932254  p :     2.943796
      px      :     1.036394
      py      :     0.975147
      dz2     :     0.061234  d :     0.375696
      dxz     :     0.077160
      dyz     :     0.042314
      dx2y2   :     0.074414
      dxy     :     0.120575
  2 C s       :     2.768458  s :     2.768458
      pz      :     0.933895  p :     2.946199
      px      :     1.040748
      py      :     0.971556
      dz2     :     0.032622  d :     0.364453
      dxz     :     0.074491
      dyz     :     0.051448
      dx2y2   :     0.097993
      dxy     :     0.107898
  3 C s       :     2.721471  s :     2.721471
      pz      :     0.861944  p :     2.767073
      px      :     1.012845
      py      :     0.892284
      dz2     :     0.096040  d :     0.628197
      dxz     :     0.115989
      dyz     :     0.117025
      dx2y2   :     0.162195
      dxy     :     0.136948
  4 C s       :     2.701146  s :     2.701146
      pz      :     0.931529  p :     2.862865
      px      :     0.976563
      py      :     0.954773
      dz2     :     0.066345  d :     0.460935
      dxz     :     0.090660
      dyz     :     0.062897
      dx2y2   :     0.118470
      dxy     :     0.122562
  5 O s       :     3.286661  s :     3.286661
      pz      :     1.567021  p :     4.461118
      px      :     1.446355
      py      :     1.447743
      dz2     :     0.017999  d :     0.097246
      dxz     :     0.015581
      dyz     :     0.019774
      dx2y2   :     0.020048
      dxy     :     0.023845
  6 C s       :     2.708528  s :     2.708528
      pz      :     0.897583  p :     2.858465
      px      :     0.996227
      py      :     0.964655
      dz2     :     0.071711  d :     0.499241
      dxz     :     0.093990
      dyz     :     0.075952
      dx2y2   :     0.131575
      dxy     :     0.126013
  7 C s       :     2.770476  s :     2.770476
      pz      :     0.914376  p :     2.922583
      px      :     1.018024
      py      :     0.990183
      dz2     :     0.031939  d :     0.368062
      dxz     :     0.071471
      dyz     :     0.056912
      dx2y2   :     0.111367
      dxy     :     0.096372
  8 C s       :     2.768410  s :     2.768410
      pz      :     0.931687  p :     2.941584
      px      :     1.009922
      py      :     0.999975
      dz2     :     0.049839  d :     0.363120
      dxz     :     0.051817
      dyz     :     0.068814
      dx2y2   :     0.118745
      dxy     :     0.073906
  9 C s       :     2.701657  s :     2.701657
      pz      :     0.867393  p :     2.757513
      px      :     1.000988
      py      :     0.889131
      dz2     :     0.087873  d :     0.554388
      dxz     :     0.101241
      dyz     :     0.095054
      dx2y2   :     0.136694
      dxy     :     0.133527
 10 C s       :     2.707089  s :     2.707089
      pz      :     0.909932  p :     2.871861
      px      :     0.991991
      py      :     0.969939
      dz2     :     0.077055  d :     0.490715
      dxz     :     0.087052
      dyz     :     0.073028
      dx2y2   :     0.129789
      dxy     :     0.123791
 11 N s       :     2.922048  s :     2.922048
      pz      :     1.220266  p :     3.612320
      px      :     1.180631
      py      :     1.211423
      dz2     :     0.037036  d :     0.241639
      dxz     :     0.035429
      dyz     :     0.046130
      dx2y2   :     0.074306
      dxy     :     0.048739
 12 C s       :     2.780763  s :     2.780763
      pz      :     0.896264  p :     2.812857
      px      :     1.010140
      py      :     0.906454
      dz2     :     0.042631  d :     0.442338
      dxz     :     0.092937
      dyz     :     0.061015
      dx2y2   :     0.113968
      dxy     :     0.131788
 13 C s       :     2.775913  s :     2.775913
      pz      :     0.951079  p :     2.964670
      px      :     1.023663
      py      :     0.989929
      dz2     :     0.048751  d :     0.350990
      dxz     :     0.076614
      dyz     :     0.044259
      dx2y2   :     0.076719
      dxy     :     0.104648
 14 C s       :     2.775091  s :     2.775091
      pz      :     0.889808  p :     2.861520
      px      :     0.992144
      py      :     0.979567
      dz2     :     0.051131  d :     0.367426
      dxz     :     0.059521
      dyz     :     0.067281
      dx2y2   :     0.112790
      dxy     :     0.076703
 15 C s       :     2.722502  s :     2.722502
      pz      :     0.974518  p :     2.616336
      px      :     0.823656
      py      :     0.818163
      dz2     :     0.249628  d :     1.003104
      dxz     :     0.271364
      dyz     :     0.242561
      dx2y2   :     0.130234
      dxy     :     0.109317
 16 O s       :     3.431635  s :     3.431635
      pz      :     1.488351  p :     4.570058
      px      :     1.566047
      py      :     1.515659
      dz2     :     0.027419  d :     0.067845
      dxz     :     0.020311
      dyz     :     0.015460
      dx2y2   :     0.002173
      dxy     :     0.002482
 17 N s       :     2.921545  s :     2.921545
      pz      :     1.172278  p :     3.718777
      px      :     1.258622
      py      :     1.287877
      dz2     :     0.069837  d :     0.271965
      dxz     :     0.067962
      dyz     :     0.062617
      dx2y2   :     0.037651
      dxy     :     0.033898
 18 C s       :     2.835986  s :     2.835986
      pz      :     1.103306  p :     3.074483
      px      :     0.967982
      py      :     1.003195
      dz2     :     0.051731  d :     0.297431
      dxz     :     0.047835
      dyz     :     0.031774
      dx2y2   :     0.104276
      dxy     :     0.061815
 19 C s       :     2.837070  s :     2.837070
      pz      :     0.890889  p :     3.077720
      px      :     1.082589
      py      :     1.104243
      dz2     :     0.076062  d :     0.299495
      dxz     :     0.092810
      dyz     :     0.064481
      dx2y2   :     0.016076
      dxy     :     0.050067
 20 H s       :     0.815719  s :     0.815719
      pz      :     0.010084  p :     0.064150
      px      :     0.023515
      py      :     0.030551
 21 H s       :     0.820082  s :     0.820082
      pz      :     0.018994  p :     0.060689
      px      :     0.028209
      py      :     0.013485
 22 H s       :     0.823712  s :     0.823712
      pz      :     0.011097  p :     0.060743
      px      :     0.018918
      py      :     0.030728
 23 H s       :     0.815439  s :     0.815439
      pz      :     0.040436  p :     0.063994
      px      :     0.011779
      py      :     0.011779
 24 H s       :     0.822015  s :     0.822015
      pz      :     0.016567  p :     0.060638
      px      :     0.011579
      py      :     0.032493
 25 H s       :     0.823166  s :     0.823166
      pz      :     0.018672  p :     0.060635
      px      :     0.028553
      py      :     0.013410
 26 H s       :     0.787328  s :     0.787328
      pz      :     0.022010  p :     0.061624
      px      :     0.013794
      py      :     0.025821
 27 H s       :     0.783413  s :     0.783413
      pz      :     0.015547  p :     0.061880
      px      :     0.035030
      py      :     0.011303
 28 H s       :     0.789757  s :     0.789757
      pz      :     0.013612  p :     0.060932
      px      :     0.021476
      py      :     0.025845
 29 H s       :     0.784165  s :     0.784165
      pz      :     0.021594  p :     0.061179
      px      :     0.013006
      py      :     0.026579
 30 H s       :     0.783368  s :     0.783368
      pz      :     0.015841  p :     0.061854
      px      :     0.034597
      py      :     0.011417
 31 H s       :     0.773868  s :     0.773868
      pz      :     0.023529  p :     0.063426
      px      :     0.013539
      py      :     0.026357
 32 H s       :     0.777472  s :     0.777472
      pz      :     0.013938  p :     0.062671
      px      :     0.022249
      py      :     0.026484
 33 H s       :     0.775456  s :     0.775456
      pz      :     0.014599  p :     0.061267
      px      :     0.035951
      py      :     0.010717
 34 H s       :     0.662867  s :     0.662867
      pz      :     0.027514  p :     0.118385
      px      :     0.071557
      py      :     0.019314


                      *****************************
                      * MAYER POPULATION ANALYSIS *
                      *****************************

  NA   - Mulliken gross atomic population
  ZA   - Total nuclear charge
  QA   - Mulliken gross atomic charge
  VA   - Mayer's total valence
  BVA  - Mayer's bonded valence
  FA   - Mayer's free valence

  ATOM       NA         ZA         QA         VA         BVA        FA
  0 C      6.1281     6.0000    -0.1281     3.9305     3.9305    -0.0000
  1 C      6.0838     6.0000    -0.0838     3.8431     3.8431    -0.0000
  2 C      6.1780     6.0000    -0.1780     3.7952     3.7952    -0.0000
  3 C      5.8273     6.0000     0.1727     3.7423     3.7423     0.0000
  4 C      5.7282     6.0000     0.2718     3.5467     3.5467     0.0000
  5 O      8.5405     8.0000    -0.5405     1.9683     1.9683    -0.0000
  6 C      5.7632     6.0000     0.2368     3.8853     3.8853     0.0000
  7 C      6.2155     6.0000    -0.2155     3.7293     3.7293    -0.0000
  8 C      6.2511     6.0000    -0.2511     3.7910     3.7910     0.0000
  9 C      6.0163     6.0000    -0.0163     3.7871     3.7871    -0.0000
 10 C      5.6020     6.0000     0.3980     3.8191     3.8191     0.0000
 11 N      7.2023     7.0000    -0.2023     3.5400     3.5400    -0.0000
 12 C      5.8724     6.0000     0.1276     3.9113     3.9113     0.0000
 13 C      6.0315     6.0000    -0.0315     3.8774     3.8774    -0.0000
 14 C      6.1622     6.0000    -0.1622     3.9774     3.9774    -0.0000
 15 C      5.3145     6.0000     0.6855     4.2076     4.2076    -0.0000
 16 O      8.5975     8.0000    -0.5975     2.0047     2.0047     0.0000
 17 N      7.2090     7.0000    -0.2090     3.2505     3.2505     0.0000
 18 C      6.2509     6.0000    -0.2509     3.8284     3.8284    -0.0000
 19 C      6.2717     6.0000    -0.2717     3.8339     3.8339    -0.0000
 20 H      0.8410     1.0000     0.1590     0.9669     0.9669    -0.0000
 21 H      0.8480     1.0000     0.1520     0.9464     0.9464    -0.0000
 22 H      0.8537     1.0000     0.1463     0.9498     0.9498     0.0000
 23 H      0.8502     1.0000     0.1498     0.9801     0.9801    -0.0000
 24 H      0.8576     1.0000     0.1424     0.9488     0.9488     0.0000
 25 H      0.8552     1.0000     0.1448     0.9504     0.9504     0.0000
 26 H      0.8782     1.0000     0.1218     0.9716     0.9716     0.0000
 27 H      0.8736     1.0000     0.1264     0.9694     0.9694    -0.0000
 28 H      0.8753     1.0000     0.1247     0.9634     0.9634     0.0000
 29 H      0.8780     1.0000     0.1220     0.9748     0.9748     0.0000
 30 H      0.8802     1.0000     0.1198     0.9757     0.9757    -0.0000
 31 H      0.8156     1.0000     0.1844     0.9570     0.9570     0.0000
 32 H      0.8487     1.0000     0.1513     0.9619     0.9619    -0.0000
 33 H      0.8508     1.0000     0.1492     0.9657     0.9657     0.0000
 34 H      0.7479     1.0000     0.2521     0.9424     0.9424    -0.0000

  Mayer bond orders larger than 0.100000
B(  0-C ,  1-C ) :   1.2647 B(  0-C ,  3-C ) :   1.4622 B(  0-C , 27-H ) :   0.9880 
B(  1-C ,  2-C ) :   1.4008 B(  1-C , 28-H ) :   0.9892 B(  2-C ,  6-C ) :   1.2783 
B(  2-C , 26-H ) :   0.9950 B(  3-C ,  4-C ) :   1.2303 B(  3-C ,  5-O ) :   0.8197 
B(  4-C ,  6-C ) :   1.3203 B(  4-C ,  9-C ) :   0.9817 B(  5-O , 15-C ) :   0.9457 
B(  6-C ,  7-C ) :   1.1286 B(  7-C ,  8-C ) :   1.4997 B(  7-C , 29-H ) :   1.0044 
B(  8-C , 10-C ) :   1.1233 B(  8-C , 30-H ) :   1.0168 B(  9-C , 10-C ) :   1.3183 
B(  9-C , 11-N ) :   1.2843 B( 10-C , 14-C ) :   1.2918 B( 11-N , 12-C ) :   1.3384 
B( 11-N , 34-H ) :   0.8514 B( 12-C , 13-C ) :   1.3872 B( 12-C , 31-H ) :   0.9371 
B( 13-C , 14-C ) :   1.4276 B( 13-C , 32-H ) :   0.9593 B( 14-C , 33-H ) :   0.9579 
B( 15-C , 16-O ) :   1.8358 B( 15-C , 17-N ) :   1.3664 B( 17-N , 18-C ) :   0.9298 
B( 17-N , 19-C ) :   0.9336 B( 18-C , 23-H ) :   0.9622 B( 18-C , 24-H ) :   0.9583 
B( 18-C , 25-H ) :   0.9619 B( 19-C , 20-H ) :   0.9588 B( 19-C , 21-H ) :   0.9553 
B( 19-C , 22-H ) :   0.9634 

Environment variable NBOEXE for nbo6.exe or nbo5.exe not set! Skipping NBO-Analysis

-------
TIMINGS
-------

Total SCF time: 0 days 0 hours 11 min 39 sec 

Total time                  ....     699.373 sec
Sum of individual times     ....     621.012 sec  ( 88.8%)

Fock matrix formation       ....     544.014 sec  ( 77.8%)
  Split-RI-J                ....      30.986 sec  (  5.7% of F)
  Chain of spheres X        ....     361.574 sec  ( 66.5% of F)
  XC integration            ....      72.294 sec  ( 13.3% of F)
    Basis function eval.    ....       7.315 sec  ( 10.1% of XC)
    Density eval.           ....      25.316 sec  ( 35.0% of XC)
    XC-Functional eval.     ....       4.346 sec  (  6.0% of XC)
    XC-Potential eval.      ....       5.230 sec  (  7.2% of XC)
Diagonalization             ....       0.066 sec  (  0.0%)
Density matrix formation    ....       0.041 sec  (  0.0%)
Population analysis         ....       4.789 sec  (  0.7%)
Initial guess               ....       0.925 sec  (  0.1%)
Orbital Transformation      ....       0.000 sec  (  0.0%)
Orbital Orthonormalization  ....       0.065 sec  (  0.0%)
DIIS solution               ....       0.019 sec  (  0.0%)
SOSCF solution              ....       0.906 sec  (  0.1%)
Grid generation             ....      70.251 sec  ( 10.0%)

Maximum memory used throughout the entire SCF-calculation: 287.6 MB

-------------------------   --------------------
FINAL SINGLE POINT ENERGY      -878.896346071514
-------------------------   --------------------

                                *** OPTIMIZATION RUN DONE ***

                            ***************************************
                            *     ORCA property calculations      *
                            ***************************************

                                    ---------------------
                                    Active property flags
                                    ---------------------
   (+) Dipole Moment


------------------------------------------------------------------------------
                       ORCA ELECTRIC PROPERTIES CALCULATION
------------------------------------------------------------------------------

Dipole Moment Calculation                       ... on
Quadrupole Moment Calculation                   ... off
Polarizability Calculation                      ... off
GBWName                                         ... HBQ-H.gbw
Electron density                                ... HBQ-H.scfp
The origin for moment calculation is the CENTER OF MASS  = (-2.563171,  2.107237  1.005229)

-------------
DIPOLE MOMENT
-------------
                                X             Y             Z
Electronic contribution:      8.70822      -4.50790      -5.71161
Nuclear contribution   :     -6.11744       6.02339       7.69970
                        -----------------------------------------
Total Dipole Moment    :      2.59078       1.51549       1.98809
                        -----------------------------------------
Magnitude (a.u.)       :      3.60019
Magnitude (Debye)      :      9.15095



--------------------
Rotational spectrum 
--------------------
 
Rotational constants in cm-1:     0.016846     0.009580     0.006527 
Rotational constants in MHz :   505.039985   287.211467   195.672795 

 Dipole components along the rotational axes: 
x,y,z [a.u.] :    -1.246461     3.107749     1.322718 
x,y,z [Debye]:    -3.168253     7.899271     3.362081 

 

Timings for individual modules:

Sum of individual times         ...    38455.821 sec (= 640.930 min)
GTO integral calculation        ...      848.425 sec (=  14.140 min)   2.2 %
SCF iterations                  ...    31075.417 sec (= 517.924 min)  80.8 %
SCF Gradient evaluation         ...     6412.143 sec (= 106.869 min)  16.7 %
Geometry relaxation             ...      119.837 sec (=   1.997 min)   0.3 %
                             ****ORCA TERMINATED NORMALLY****
TOTAL RUN TIME: 0 days 10 hours 57 minutes 31 seconds 256 msec
