
                                 *****************
                                 * O   R   C   A *
                                 *****************

                                            #,                                       
                                            ###                                      
                                            ####                                     
                                            #####                                    
                                            ######                                   
                                           ########,                                 
                                     ,,################,,,,,                         
                               ,,#################################,,                 
                          ,,##########################################,,             
                       ,#########################################, ''#####,          
                    ,#############################################,,   '####,        
                  ,##################################################,,,,####,       
                ,###########''''           ''''###############################       
              ,#####''   ,,,,##########,,,,          '''####'''          '####       
            ,##' ,,,,###########################,,,                        '##       
           ' ,,###''''                  '''############,,,                           
         ,,##''                                '''############,,,,        ,,,,,,###''
      ,#''                                            '''#######################'''  
     '                                                          ''''####''''         
             ,#######,   #######,   ,#######,      ##                                
            ,#'     '#,  ##    ##  ,#'     '#,    #''#        ######   ,####,        
            ##       ##  ##   ,#'  ##            #'  '#       #        #'  '#        
            ##       ##  #######   ##           ,######,      #####,   #    #        
            '#,     ,#'  ##    ##  '#,     ,#' ,#      #,         ##   #,  ,#        
             '#######'   ##     ##  '#######'  #'      '#     #####' # '####'        



                  #######################################################
                  #                        -***-                        #
                  #          Department of theory and spectroscopy      #
                  #    Directorship and core code : Frank Neese         #
                  #        Max Planck Institute fuer Kohlenforschung    #
                  #                Kaiser Wilhelm Platz 1               #
                  #                 D-45470 Muelheim/Ruhr               #
                  #                      Germany                        #
                  #                                                     #
                  #                  All rights reserved                #
                  #                        -***-                        #
                  #######################################################


                         Program Version 5.0.4 -  RELEASE  -


 With contributions from (in alphabetic order):
   Daniel Aravena         : Magnetic Suceptibility
   Michael Atanasov       : Ab Initio Ligand Field Theory (pilot matlab implementation)
   Alexander A. Auer      : GIAO ZORA, VPT2 properties, NMR spectrum
   Ute Becker             : Parallelization
   Giovanni Bistoni       : ED, misc. LED, open-shell LED, HFLD
   Martin Brehm           : Molecular dynamics
   Dmytro Bykov           : SCF Hessian
   Vijay G. Chilkuri      : MRCI spin determinant printing, contributions to CSF-ICE
   Dipayan Datta          : RHF DLPNO-CCSD density
   Achintya Kumar Dutta   : EOM-CC, STEOM-CC
   Dmitry Ganyushin       : Spin-Orbit,Spin-Spin,Magnetic field MRCI
   Miquel Garcia          : C-PCM and meta-GGA Hessian, CC/C-PCM, Gaussian charge scheme
   Yang Guo               : DLPNO-NEVPT2, F12-NEVPT2, CIM, IAO-localization
   Andreas Hansen         : Spin unrestricted coupled pair/coupled cluster methods
   Benjamin Helmich-Paris : MC-RPA, TRAH-SCF, COSX integrals
   Lee Huntington         : MR-EOM, pCC
   Robert Izsak           : Overlap fitted RIJCOSX, COSX-SCS-MP3, EOM
   Marcus Kettner         : VPT2
   Christian Kollmar      : KDIIS, OOCD, Brueckner-CCSD(T), CCSD density, CASPT2, CASPT2-K
   Simone Kossmann        : Meta GGA functionals, TD-DFT gradient, OOMP2, MP2 Hessian
   Martin Krupicka        : Initial AUTO-CI
   Lucas Lang             : DCDCAS
   Marvin Lechner         : AUTO-CI (C++ implementation), FIC-MRCC
   Dagmar Lenk            : GEPOL surface, SMD
   Dimitrios Liakos       : Extrapolation schemes; Compound Job, initial MDCI parallelization
   Dimitrios Manganas     : Further ROCIS development; embedding schemes
   Dimitrios Pantazis     : SARC Basis sets
   Anastasios Papadopoulos: AUTO-CI, single reference methods and gradients
   Taras Petrenko         : DFT Hessian,TD-DFT gradient, ASA, ECA, R-Raman, ABS, FL, XAS/XES, NRVS
   Peter Pinski           : DLPNO-MP2, DLPNO-MP2 Gradient
   Christoph Reimann      : Effective Core Potentials
   Marius Retegan         : Local ZFS, SOC
   Christoph Riplinger    : Optimizer, TS searches, QM/MM, DLPNO-CCSD(T), (RO)-DLPNO pert. Triples
   Tobias Risthaus        : Range-separated hybrids, TD-DFT gradient, RPA, STAB
   Michael Roemelt        : Original ROCIS implementation
   Masaaki Saitow         : Open-shell DLPNO-CCSD energy and density
   Barbara Sandhoefer     : DKH picture change effects
   Avijit Sen             : IP-ROCIS
   Kantharuban Sivalingam : CASSCF convergence, NEVPT2, FIC-MRCI
   Bernardo de Souza      : ESD, SOC TD-DFT
   Georgi Stoychev        : AutoAux, RI-MP2 NMR, DLPNO-MP2 response
   Willem Van den Heuvel  : Paramagnetic NMR
   Boris Wezisla          : Elementary symmetry handling
   Frank Wennmohs         : Technical directorship


 We gratefully acknowledge several colleagues who have allowed us to
 interface, adapt or use parts of their codes:
   Stefan Grimme, W. Hujo, H. Kruse, P. Pracht,  : VdW corrections, initial TS optimization,
                  C. Bannwarth, S. Ehlert          DFT functionals, gCP, sTDA/sTD-DF
   Ed Valeev, F. Pavosevic, A. Kumar             : LibInt (2-el integral package), F12 methods
   Garnet Chan, S. Sharma, J. Yang, R. Olivares  : DMRG
   Ulf Ekstrom                                   : XCFun DFT Library
   Mihaly Kallay                                 : mrcc  (arbitrary order and MRCC methods)
   Jiri Pittner, Ondrej Demel                    : Mk-CCSD
   Frank Weinhold                                : gennbo (NPA and NBO analysis)
   Christopher J. Cramer and Donald G. Truhlar   : smd solvation model
   Lars Goerigk                                  : TD-DFT with DH, B97 family of functionals
   V. Asgeirsson, H. Jonsson                     : NEB implementation
   FAccTs GmbH                                   : IRC, NEB, NEB-TS, DLPNO-Multilevel, CI-OPT
                                                   MM, QMMM, 2- and 3-layer-ONIOM, Crystal-QMMM,
                                                   LR-CPCM, SF, NACMEs, symmetry and pop. for TD-DFT,
                                                   nearIR, NL-DFT gradient (VV10), updates on ESD,
                                                   ML-optimized integration grids
   S Lehtola, MJT Oliveira, MAL Marques          : LibXC Library
   Liviu Ungur et al                             : ANISO software


 Your calculation uses the libint2 library for the computation of 2-el integrals
 For citations please refer to: http://libint.valeyev.net

 Your ORCA version has been built with support for libXC version: 5.1.0
 For citations please refer to: https://tddft.org/programs/libxc/

 This ORCA versions uses:
   CBLAS   interface :  Fast vector & matrix operations
   LAPACKE interface :  Fast linear algebra routines
   SCALAPACK package :  Parallel linear algebra routines
   Shared memory     :  Shared parallel matrices
   BLAS/LAPACK       :  OpenBLAS 0.3.15  USE64BITINT DYNAMIC_ARCH NO_AFFINITY Zen SINGLE_THREADED
        Core in use  :  Zen
   Copyright (c) 2011-2014, The OpenBLAS Project


================================================================================

----- Orbital basis set information -----
Your calculation utilizes the basis: def2-TZVP(-f)
   F. Weigend and R. Ahlrichs, Phys. Chem. Chem. Phys. 7, 3297 (2005).

----- AuxJ basis set information -----
Your calculation utilizes the auxiliary basis: def2/J
   F. Weigend, Phys. Chem. Chem. Phys. 8, 1057 (2006).

----- AuxC basis set information -----
Your calculation utilizes the auxiliary basis: def2-TZVP/C
  H-La, Hf-Rn : A. Hellweg, C. Hattig, S. Hofener and W. Klopper, Theor. Chem. Acc. 117, 587 (2007).
        Ce-Lu : J. Chmela and M. E. Harding, Mol. Phys. (2018).

================================================================================
                                        WARNINGS
                       Please study these warnings very carefully!
================================================================================


WARNING: Geometry Optimization
  ===> : Switching off AutoStart
         For restart on a previous wavefunction, please use MOREAD

INFO   : the flag for use of the SHARK integral package has been found!

================================================================================
                                       INPUT FILE
================================================================================
NAME = HBQ_GS.inp
|  1> ! B3LYP/G VERYTIGHTOPT FREQ Def2-TZVP(-f) Def2-TZVP/C Def2/J RIJCOSX TightSCF CPCM(Water) AllPop SOSCF
|  2> 
|  3> * xyz 0 1 
|  4>   C   -3.29427742206977     -0.64644673085454     -0.61830236256619
|  5>   C   -2.79193783387700     -1.50249156800673     -1.60322792775029
|  6>   C   -1.43844741589871     -1.54295748570471     -1.83596893493297
|  7>   C   -2.44969206905909      0.15850848959996      0.11391956764737
|  8>   C   -1.04607727993728      0.15369735491148     -0.08995443163697
|  9>   O   -3.05525269796050      0.89173977299862      1.12959822010116
| 10>   C   -0.55477066364860     -0.73383628884240     -1.09494226085955
| 11>   C   0.85066792963646     -0.81848025448833     -1.35762898897175
| 12>   C   1.74401779923739     -0.07425581331070     -0.66737944471889
| 13>   C   -0.08241957285496      0.96443894314803      0.64180782419541
| 14>   C   1.30221875961813      0.83188058829893      0.34390661999475
| 15>   N   -0.50882215483953      1.83341350947850      1.58611497959203
| 16>   C   0.37819738949340      2.55939671190755      2.24324732821966
| 17>   C   1.76019638572666      2.49029902726503      2.02389061707692
| 18>   C   2.21723932916533      1.61947413145264      1.06525520416058
| 19>   C   -3.31427517051416      2.21787061229053      0.89751096115064
| 20>   O   -3.11988103641509      2.74303800996144     -0.18822723553327
| 21>   N   -3.81843227930513      2.82579231825617      1.98870596281696
| 22>   C   -4.10556772801243      2.13772237657102      3.24266622696836
| 23>   C   -4.30227119923351      4.19610361307538      1.88500291297919
| 24>   H   -3.98874170086744      4.62290173107799      0.93846166745227
| 25>   H   -3.89263782966633      4.78961938799755      2.70400595438292
| 26>   H   -5.39382275814618      4.22350650742727      1.94830989785070
| 27>   H   -3.48220878815922      1.25726619784040      3.34737346058787
| 28>   H   -5.15750648016043      1.84205279906163      3.29595013045477
| 29>   H   -3.89638476178200      2.81849315185918      4.06829296562207
| 30>   H   -1.02766113168993     -2.20187664831027     -2.59059448930793
| 31>   H   -4.35518479399456     -0.60407587746015     -0.40998670468854
| 32>   H   -3.46975409960987     -2.12665192730886     -2.17083923618162
| 33>   H   1.18140391106415     -1.50342445895894     -2.12860190829612
| 34>   H   2.80578802419604     -0.14726035945888     -0.86955320666875
| 35>   H   -0.01665804974943      3.24215862326288      2.98920828240005
| 36>   H   2.43579950381512      3.11184457478342      2.59606312027014
| 37>   H   3.27530588549879      1.52837898017867      0.85029522818887
| 38> **                         ****END OF INPUT****
================================================================================

                       *****************************
                       * Geometry Optimization Run *
                       *****************************

Geometry optimization settings:
Update method            Update   .... BFGS
Choice of coordinates    CoordSys .... Z-matrix Internals
Initial Hessian          InHess   .... Almoef's Model

Convergence Tolerances:
Energy Change            TolE     ....  2.0000e-07 Eh
Max. Gradient            TolMAXG  ....  3.0000e-05 Eh/bohr
RMS Gradient             TolRMSG  ....  8.0000e-06 Eh/bohr
Max. Displacement        TolMAXD  ....  2.0000e-04 bohr
RMS Displacement         TolRMSD  ....  1.0000e-04 bohr
Strict Convergence                ....  False
------------------------------------------------------------------------------
                        ORCA OPTIMIZATION COORDINATE SETUP
------------------------------------------------------------------------------

The optimization will be done in new redundant internal coordinates
Making redundant internal coordinates   ...  (new redundants) done
Evaluating the initial hessian          ...  (Almloef) done
Evaluating the coordinates              ...  done
Calculating the B-matrix                .... done
Calculating the G-matrix                .... done
Diagonalizing the G-matrix              .... done
Small eigenvalue found = 3.725e-03
Small eigenvalue found = 5.551e-03
Small eigenvalue found = 1.344e-02
Small eigenvalue found = 2.449e-02
The first mode is                       ....   79
The number of degrees of freedom        ....   96

    -----------------------------------------------------------------
                    Redundant Internal Coordinates


    -----------------------------------------------------------------
         Definition                    Initial Value    Approx d2E/dq
    -----------------------------------------------------------------
      1. B(C   1,C   0)                  1.3983         0.606039   
      2. B(C   2,C   1)                  1.3740         0.662740   
      3. B(C   3,C   0)                  1.3775         0.654226   
      4. B(C   4,C   3)                  1.4184         0.562995   
      5. B(O   5,C   3)                  1.3914         0.556770   
      6. B(C   6,C   4)                  1.4280         0.543450   
      7. B(C   6,C   2)                  1.4088         0.583129   
      8. B(C   7,C   6)                  1.4323         0.534913   
      9. B(C   8,C   7)                  1.3522         0.717925   
     10. B(C   9,C   4)                  1.4565         0.489362   
     11. B(C  10,C   9)                  1.4225         0.554457   
     12. B(C  10,C   8)                  1.4279         0.543541   
     13. B(N  11,C   9)                  1.3523         0.642778   
     14. B(C  12,N  11)                  1.3212         0.720403   
     15. B(C  13,C  12)                  1.4010         0.600042   
     16. B(C  14,C  13)                  1.3734         0.664103   
     17. B(C  14,C  10)                  1.4064         0.588305   
     18. B(C  15,O   5)                  1.3710         0.600101   
     19. B(O  16,C  15)                  1.2216         1.038663   
     20. B(N  17,C  15)                  1.3470         0.655323   
     21. B(C  18,N  17)                  1.4589         0.434507   
     22. B(C  19,N  17)                  1.4569         0.437636   
     23. B(H  20,C  19)                  1.0846         0.367290   
     24. B(H  21,C  19)                  1.0912         0.358450   
     25. B(H  22,C  19)                  1.0937         0.355200   
     26. B(H  23,C  18)                  1.0839         0.368321   
     27. B(H  24,C  18)                  1.0940         0.354848   
     28. B(H  25,C  18)                  1.0904         0.359636   
     29. B(H  26,C   2)                  1.0828         0.369800   
     30. B(H  27,C   0)                  1.0820         0.370846   
     31. B(H  28,C   1)                  1.0822         0.370545   
     32. B(H  29,C   7)                  1.0830         0.369452   
     33. B(H  30,C   8)                  1.0833         0.369060   
     34. B(H  31,C  12)                  1.0856         0.365965   
     35. B(H  32,C  13)                  1.0817         0.371208   
     36. B(H  33,C  14)                  1.0835         0.368778   
     37. A(C   1,C   0,C   3)          120.7910         0.436492   
     38. A(C   3,C   0,H  27)          118.4222         0.357922   
     39. A(C   1,C   0,H  27)          120.7862         0.353305   
     40. A(C   2,C   1,H  28)          120.7413         0.358661   
     41. A(C   0,C   1,C   2)          119.4227         0.437511   
     42. A(C   0,C   1,H  28)          119.8357         0.353257   
     43. A(C   1,C   2,H  26)          120.6451         0.358538   
     44. A(C   1,C   2,C   6)          120.7906         0.434484   
     45. A(C   6,C   2,H  26)          118.5637         0.350842   
     46. A(C   4,C   3,O   5)          122.5079         0.415783   
     47. A(C   0,C   3,C   4)          121.8961         0.430746   
     48. A(C   0,C   3,O   5)          115.4127         0.427082   
     49. A(C   3,C   4,C   9)          125.4958         0.409009   
     50. A(C   3,C   4,C   6)          116.3437         0.416694   
     51. A(C   6,C   4,C   9)          118.1590         0.406460   
     52. A(C   3,O   5,C  15)          117.9302         0.417810   
     53. A(C   4,C   6,C   7)          120.2266         0.412920   
     54. A(C   2,C   6,C   7)          119.0185         0.418128   
     55. A(C   2,C   6,C   4)          120.7539         0.419310   
     56. A(C   6,C   7,H  29)          117.8784         0.345723   
     57. A(C   6,C   7,C   8)          121.4761         0.433990   
     58. A(C   8,C   7,H  29)          120.6452         0.363403   
     59. A(C   7,C   8,H  30)          121.0095         0.363337   
     60. A(C  10,C   8,H  30)          118.5669         0.346592   
     61. A(C   7,C   8,C  10)          120.4231         0.435242   
     62. A(C   4,C   9,C  10)          119.1385         0.407904   
     63. A(C  10,C   9,N  11)          120.8670         0.425417   
     64. A(C   4,C   9,N  11)          119.9938         0.416040   
     65. A(C   9,C  10,C  14)          118.2747         0.421477   
     66. A(C   8,C  10,C  14)          121.1532         0.419984   
     67. A(C   8,C  10,C   9)          120.5714         0.415574   
     68. A(C   9,N  11,C  12)          119.2558         0.443018   
     69. A(N  11,C  12,H  31)          116.3048         0.360774   
     70. A(N  11,C  12,C  13)          123.8675         0.440440   
     71. A(C  13,C  12,H  31)          119.8275         0.351921   
     72. A(C  12,C  13,H  32)          120.3267         0.352769   
     73. A(C  12,C  13,C  14)          117.9583         0.436889   
     74. A(C  14,C  13,H  32)          121.7146         0.358895   
     75. A(C  10,C  14,H  33)          119.1107         0.351202   
     76. A(C  10,C  14,C  13)          119.7744         0.435337   
     77. A(C  13,C  14,H  33)          121.1147         0.358494   
     78. A(O  16,C  15,N  17)          125.8389         0.475269   
     79. A(O   5,C  15,N  17)          111.7233         0.430166   
     80. A(O   5,C  15,O  16)          122.4262         0.467649   
     81. A(C  18,N  17,C  19)          116.0673         0.378428   
     82. A(C  15,N  17,C  19)          119.4140         0.406638   
     83. A(C  15,N  17,C  18)          123.8560         0.406122   
     84. A(H  24,C  18,H  25)          108.4414         0.290111   
     85. A(H  23,C  18,H  25)          108.8869         0.291814   
     86. A(N  17,C  18,H  25)          108.5794         0.330431   
     87. A(H  23,C  18,H  24)          109.1940         0.291200   
     88. A(N  17,C  18,H  24)          111.0134         0.329700   
     89. A(N  17,C  18,H  23)          110.6694         0.331739   
     90. A(H  21,C  19,H  22)          108.5157         0.290006   
     91. A(H  20,C  19,H  22)          109.2170         0.291117   
     92. A(N  17,C  19,H  22)          110.5413         0.330145   
     93. A(H  20,C  19,H  21)          109.4171         0.291534   
     94. A(N  17,C  19,H  21)          109.4796         0.330643   
     95. A(N  17,C  19,H  20)          109.6472         0.331979   
     96. D(C   2,C   1,C   0,H  27)   -179.3918         0.025347   
     97. D(H  28,C   1,C   0,H  27)      0.4283         0.025347   
     98. D(C   2,C   1,C   0,C   3)      0.3140         0.025347   
     99. D(H  28,C   1,C   0,C   3)   -179.8659         0.025347   
    100. D(H  26,C   2,C   1,H  28)     -0.1061         0.030668   
    101. D(H  26,C   2,C   1,C   0)    179.7124         0.030668   
    102. D(C   6,C   2,C   1,C   0)      0.0095         0.030668   
    103. D(C   6,C   2,C   1,H  28)   -179.8089         0.030668   
    104. D(O   5,C   3,C   0,C   1)   -175.4524         0.029829   
    105. D(O   5,C   3,C   0,H  27)      4.2601         0.029829   
    106. D(C   4,C   3,C   0,C   1)     -0.2571         0.029829   
    107. D(C   4,C   3,C   0,H  27)    179.4555         0.029829   
    108. D(C   6,C   4,C   3,O   5)    174.7363         0.021721   
    109. D(C   9,C   4,C   3,C   0)   -179.6604         0.021721   
    110. D(C   6,C   4,C   3,C   0)     -0.1167         0.021721   
    111. D(C   9,C   4,C   3,O   5)     -4.8074         0.021721   
    112. D(C  15,O   5,C   3,C   4)     83.3870         0.022447   
    113. D(C  15,O   5,C   3,C   0)   -101.4502         0.022447   
    114. D(C   7,C   6,C   4,C   9)      0.3901         0.020188   
    115. D(C   7,C   6,C   4,C   3)   -179.1885         0.020188   
    116. D(C   2,C   6,C   4,C   9)   -179.9860         0.020188   
    117. D(C   2,C   6,C   4,C   3)      0.4354         0.020188   
    118. D(C   7,C   6,C   2,H  26)     -0.4726         0.023374   
    119. D(C   7,C   6,C   2,C   1)    179.2364         0.023374   
    120. D(C   4,C   6,C   2,H  26)    179.8991         0.023374   
    121. D(C   4,C   6,C   2,C   1)     -0.3920         0.023374   
    122. D(H  29,C   7,C   6,C   4)   -179.9456         0.019540   
    123. D(H  29,C   7,C   6,C   2)      0.4240         0.019540   
    124. D(C   8,C   7,C   6,C   4)      0.2657         0.019540   
    125. D(C   8,C   7,C   6,C   2)   -179.3647         0.019540   
    126. D(C  10,C   8,C   7,C   6)     -0.5074         0.036460   
    127. D(H  30,C   8,C   7,H  29)     -0.0347         0.036460   
    128. D(H  30,C   8,C   7,C   6)    179.7482         0.036460   
    129. D(C  10,C   8,C   7,H  29)    179.7097         0.036460   
    130. D(N  11,C   9,C   4,C   6)    178.9143         0.016306   
    131. D(C  10,C   9,C   4,C   6)     -0.7921         0.016306   
    132. D(C  10,C   9,C   4,C   3)    178.7441         0.016306   
    133. D(N  11,C   9,C   4,C   3)     -1.5495         0.016306   
    134. D(C  14,C  10,C   9,N  11)      0.5532         0.021042   
    135. D(C  14,C  10,C   9,C   4)   -179.7431         0.021042   
    136. D(C   8,C  10,C   9,N  11)   -179.1285         0.021042   
    137. D(C   8,C  10,C   9,C   4)      0.5752         0.021042   
    138. D(C  14,C  10,C   8,H  30)      0.1580         0.020195   
    139. D(C  14,C  10,C   8,C   7)   -179.5925         0.020195   
    140. D(C   9,C  10,C   8,H  30)    179.8304         0.020195   
    141. D(C   9,C  10,C   8,C   7)      0.0799         0.020195   
    142. D(C  12,N  11,C   9,C  10)     -0.4544         0.030480   
    143. D(C  12,N  11,C   9,C   4)    179.8444         0.030480   
    144. D(H  31,C  12,N  11,C   9)    179.9048         0.039085   
    145. D(C  13,C  12,N  11,C   9)      0.0467         0.039085   
    146. D(H  32,C  13,C  12,H  31)      0.1726         0.024821   
    147. D(H  32,C  13,C  12,N  11)   -179.9740         0.024821   
    148. D(C  14,C  13,C  12,H  31)   -179.6000         0.024821   
    149. D(C  14,C  13,C  12,N  11)      0.2534         0.024821   
    150. D(H  33,C  14,C  13,H  32)     -0.0720         0.030803   
    151. D(H  33,C  14,C  13,C  12)    179.6972         0.030803   
    152. D(C  10,C  14,C  13,H  32)   -179.9057         0.030803   
    153. D(C  10,C  14,C  13,C  12)     -0.1365         0.030803   
    154. D(H  33,C  14,C  10,C   9)    179.9176         0.023811   
    155. D(H  33,C  14,C  10,C   8)     -0.4027         0.023811   
    156. D(C  13,C  14,C  10,C   9)     -0.2453         0.023811   
    157. D(C  13,C  14,C  10,C   8)    179.4344         0.023811   
    158. D(O  16,C  15,O   5,C   3)      5.2431         0.026302   
    159. D(N  17,C  15,O   5,C   3)   -175.9333         0.026302   
    160. D(C  19,N  17,C  15,O  16)      5.9985         0.035097   
    161. D(C  19,N  17,C  15,O   5)   -172.7765         0.035097   
    162. D(C  18,N  17,C  15,O  16)    176.2908         0.035097   
    163. D(C  18,N  17,C  15,O   5)     -2.4843         0.035097   
    164. D(H  25,C  18,N  17,C  19)    -44.2751         0.016097   
    165. D(H  25,C  18,N  17,C  15)    145.1361         0.016097   
    166. D(H  24,C  18,N  17,C  19)     74.8438         0.016097   
    167. D(H  24,C  18,N  17,C  15)    -95.7449         0.016097   
    168. D(H  23,C  18,N  17,C  19)   -163.7343         0.016097   
    169. D(H  23,C  18,N  17,C  15)     25.6770         0.016097   
    170. D(H  22,C  19,N  17,C  18)    -62.4890         0.016331   
    171. D(H  22,C  19,N  17,C  15)    108.5427         0.016331   
    172. D(H  21,C  19,N  17,C  18)     57.0000         0.016331   
    173. D(H  21,C  19,N  17,C  15)   -131.9684         0.016331   
    174. D(H  20,C  19,N  17,C  18)    177.0468         0.016331   
    175. D(H  20,C  19,N  17,C  15)    -11.9215         0.016331   
    -----------------------------------------------------------------

Number of atoms                         .... 34
Number of degrees of freedom            .... 175

         *************************************************************
         *                GEOMETRY OPTIMIZATION CYCLE   1            *
         *************************************************************
---------------------------------
CARTESIAN COORDINATES (ANGSTROEM)
---------------------------------
  C     -3.294277   -0.646447   -0.618302
  C     -2.791938   -1.502492   -1.603228
  C     -1.438447   -1.542957   -1.835969
  C     -2.449692    0.158508    0.113920
  C     -1.046077    0.153697   -0.089954
  O     -3.055253    0.891740    1.129598
  C     -0.554771   -0.733836   -1.094942
  C      0.850668   -0.818480   -1.357629
  C      1.744018   -0.074256   -0.667379
  C     -0.082420    0.964439    0.641808
  C      1.302219    0.831881    0.343907
  N     -0.508822    1.833414    1.586115
  C      0.378197    2.559397    2.243247
  C      1.760196    2.490299    2.023891
  C      2.217239    1.619474    1.065255
  C     -3.314275    2.217871    0.897511
  O     -3.119881    2.743038   -0.188227
  N     -3.818432    2.825792    1.988706
  C     -4.105568    2.137722    3.242666
  C     -4.302271    4.196104    1.885003
  H     -3.988742    4.622902    0.938462
  H     -3.892638    4.789619    2.704006
  H     -5.393823    4.223507    1.948310
  H     -3.482209    1.257266    3.347373
  H     -5.157506    1.842053    3.295950
  H     -3.896385    2.818493    4.068293
  H     -1.027661   -2.201877   -2.590594
  H     -4.355185   -0.604076   -0.409987
  H     -3.469754   -2.126652   -2.170839
  H      1.181404   -1.503424   -2.128602
  H      2.805788   -0.147260   -0.869553
  H     -0.016658    3.242159    2.989208
  H      2.435800    3.111845    2.596063
  H      3.275306    1.528379    0.850295

----------------------------
CARTESIAN COORDINATES (A.U.)
----------------------------
  NO LB      ZA    FRAG     MASS         X           Y           Z
   0 C     6.0000    0    12.011   -6.225282   -1.221607   -1.168422
   1 C     6.0000    0    12.011   -5.275998   -2.839298   -3.029662
   2 C     6.0000    0    12.011   -2.718272   -2.915767   -3.469478
   3 C     6.0000    0    12.011   -4.629247    0.299538    0.215277
   4 C     6.0000    0    12.011   -1.976800    0.290446   -0.169989
   5 O     8.0000    0    15.999   -5.773591    1.685144    2.134631
   6 C     6.0000    0    12.011   -1.048365   -1.386750   -2.069141
   7 C     6.0000    0    12.011    1.607529   -1.546704   -2.565547
   8 C     6.0000    0    12.011    3.295716   -0.140323   -1.261164
   9 C     6.0000    0    12.011   -0.155750    1.822525    1.212841
  10 C     6.0000    0    12.011    2.460837    1.572026    0.649889
  11 N     7.0000    0    14.007   -0.961535    3.464649    2.997323
  12 C     6.0000    0    12.011    0.714689    4.836559    4.239123
  13 C     6.0000    0    12.011    3.326289    4.705983    3.824599
  14 C     6.0000    0    12.011    4.189975    3.060363    2.013041
  15 C     6.0000    0    12.011   -6.263072    4.191168    1.696050
  16 O     8.0000    0    15.999   -5.895721    5.183591   -0.355698
  17 N     7.0000    0    14.007   -7.215791    5.339974    3.758110
  18 C     6.0000    0    12.011   -7.758399    4.039710    6.127751
  19 C     6.0000    0    12.011   -8.130114    7.929487    3.562139
  20 H     1.0000    0     1.008   -7.537629    8.736018    1.773436
  21 H     1.0000    0     1.008   -7.356019    9.051069    5.109831
  22 H     1.0000    0     1.008  -10.192848    7.981271    3.681772
  23 H     1.0000    0     1.008   -6.580421    2.375889    6.325619
  24 H     1.0000    0     1.008   -9.746275    3.480975    6.228443
  25 H     1.0000    0     1.008   -7.363100    5.326180    7.687960
  26 H     1.0000    0     1.008   -1.941998   -4.160944   -4.895514
  27 H     1.0000    0     1.008   -8.230107   -1.141538   -0.774763
  28 H     1.0000    0     1.008   -6.556885   -4.018790   -4.102292
  29 H     1.0000    0     1.008    2.232530   -2.841060   -4.022475
  30 H     1.0000    0     1.008    5.302171   -0.278282   -1.643217
  31 H     1.0000    0     1.008   -0.031479    6.126792    5.648785
  32 H     1.0000    0     1.008    4.602994    5.880534    4.905848
  33 H     1.0000    0     1.008    6.189431    2.888218    1.606825

--------------------------------
INTERNAL COORDINATES (ANGSTROEM)
--------------------------------
 C      0   0   0     0.000000000000     0.00000000     0.00000000
 C      1   0   0     1.398297605674     0.00000000     0.00000000
 C      2   1   0     1.373951301349   119.42274131     0.00000000
 C      1   2   3     1.377470972668   120.79099922     0.31395076
 C      4   1   2     1.418351941812   121.89614310   359.74290822
 O      4   1   2     1.391378782101   115.41266667   184.54756945
 C      3   2   1     1.408787508948   120.79055598     0.00000000
 C      7   3   2     1.432280195193   119.01850437   179.23639038
 C      8   7   3     1.352179145566   121.47613897   180.63528803
 C      5   4   1     1.456507500282   125.49580268   180.33955306
 C     10   5   4     1.422511917932   119.13849355   178.74410764
 N     10   5   4     1.352276585091   119.99380364   358.45049152
 C     12  10   5     1.321241161125   119.25576293   179.84436796
 C     13  12  10     1.401004312033   123.86747870     0.04672248
 C     14  13  12     1.373392189511   117.95833819     0.25341211
 C      6   4   1     1.370977804334   117.93022201   258.54984262
 O     16   6   4     1.221645327698   122.42615588     5.24311666
 N     16   6   4     1.347015115947   111.72329816   184.06665216
 C     18  16   6     1.458870575008   123.85601149   357.51572095
 C     18  16   6     1.456917110783   119.41404764   187.22349315
 H     20  18  16     1.084618693071   109.64724444   348.07850228
 H     20  18  16     1.091249950457   109.47955814   228.03163960
 H     20  18  16     1.093729170644   110.54125601   108.54267669
 H     19  18  16     1.083855643216   110.66938081    25.67701408
 H     19  18  16     1.093999456904   111.01344432   264.25511213
 H     19  18  16     1.090351261487   108.57943079   145.13612512
 H      3   2   1     1.082764776606   120.64510158   179.71240075
 H      1   2   3     1.081995912348   120.78616221   180.60821633
 H      2   1   3     1.082217003043   119.83572643   179.82012459
 H      8   7   3     1.083020819274   117.87835891     0.42398559
 H      9   8   7     1.083309699203   121.00947281   179.74820271
 H     13  12  10     1.085602316992   116.30483182   179.90483375
 H     14  13  12     1.081730009855   120.32670282   180.02595439
 H     15  14  13     1.083517861176   121.11472192   179.69724360

---------------------------
INTERNAL COORDINATES (A.U.)
---------------------------
 C      0   0   0     0.000000000000     0.00000000     0.00000000
 C      1   0   0     2.642399528442     0.00000000     0.00000000
 C      2   1   0     2.596391680894   119.42274131     0.00000000
 C      1   2   3     2.603042895769   120.79099922     0.31395076
 C      4   1   2     2.680296731541   121.89614310   359.74290822
 O      4   1   2     2.629324846719   115.41266667   184.54756945
 C      3   2   1     2.662222572801   120.79055598     0.00000000
 C      7   3   2     2.706617315954   119.01850437   179.23639038
 C      8   7   3     2.555248269119   121.47613897   180.63528803
 C      5   4   1     2.752400287534   125.49580268   180.33955306
 C     10   5   4     2.688157947130   119.13849355   178.74410764
 N     10   5   4     2.555432403136   119.99380364   358.45049152
 C     12  10   5     2.496783951390   119.25576293   179.84436796
 C     13  12  10     2.647514462186   123.86747870     0.04672248
 C     14  13  12     2.595335112643   117.95833819     0.25341211
 C      6   4   1     2.590772585876   117.93022201   258.54984262
 O     16   6   4     2.308575102134   122.42615588     5.24311666
 N     16   6   4     2.545489667392   111.72329816   184.06665216
 C     18  16   6     2.756865851602   123.85601149   357.51572095
 C     18  16   6     2.753174339204   119.41404764   187.22349315
 H     20  18  16     2.049632289637   109.64724444   348.07850228
 H     20  18  16     2.062163550019   109.47955814   228.03163960
 H     20  18  16     2.066848597198   110.54125601   108.54267669
 H     19  18  16     2.048190334384   110.66938081    25.67701408
 H     19  18  16     2.067359364207   111.01344432   264.25511213
 H     19  18  16     2.060465273987   108.57943079   145.13612512
 H      3   2   1     2.046128895242   120.64510158   179.71240075
 H      1   2   3     2.044675952361   120.78616221   180.60821633
 H      2   1   3     2.045093753224   119.83572643   179.82012459
 H      8   7   3     2.046612745762   117.87835891     0.42398559
 H      9   8   7     2.047158649715   121.00947281   179.74820271
 H     13  12  10     2.051491069466   116.30483182   179.90483375
 H     14  13  12     2.044173469470   120.32670282   180.02595439
 H     15  14  13     2.047552018834   121.11472192   179.69724360

---------------------
BASIS SET INFORMATION
---------------------
There are 4 groups of distinct atoms

 Group   1 Type C   : 11s6p2d contracted to 5s3p2d pattern {62111/411/11}
 Group   2 Type O   : 11s6p2d contracted to 5s3p2d pattern {62111/411/11}
 Group   3 Type N   : 11s6p2d contracted to 5s3p2d pattern {62111/411/11}
 Group   4 Type H   : 5s1p contracted to 3s1p pattern {311/1}

Atom   0C    basis set group =>   1
Atom   1C    basis set group =>   1
Atom   2C    basis set group =>   1
Atom   3C    basis set group =>   1
Atom   4C    basis set group =>   1
Atom   5O    basis set group =>   2
Atom   6C    basis set group =>   1
Atom   7C    basis set group =>   1
Atom   8C    basis set group =>   1
Atom   9C    basis set group =>   1
Atom  10C    basis set group =>   1
Atom  11N    basis set group =>   3
Atom  12C    basis set group =>   1
Atom  13C    basis set group =>   1
Atom  14C    basis set group =>   1
Atom  15C    basis set group =>   1
Atom  16O    basis set group =>   2
Atom  17N    basis set group =>   3
Atom  18C    basis set group =>   1
Atom  19C    basis set group =>   1
Atom  20H    basis set group =>   4
Atom  21H    basis set group =>   4
Atom  22H    basis set group =>   4
Atom  23H    basis set group =>   4
Atom  24H    basis set group =>   4
Atom  25H    basis set group =>   4
Atom  26H    basis set group =>   4
Atom  27H    basis set group =>   4
Atom  28H    basis set group =>   4
Atom  29H    basis set group =>   4
Atom  30H    basis set group =>   4
Atom  31H    basis set group =>   4
Atom  32H    basis set group =>   4
Atom  33H    basis set group =>   4
---------------------------------
AUXILIARY/J BASIS SET INFORMATION
---------------------------------
There are 4 groups of distinct atoms

 Group   1 Type C   : 12s5p4d2f1g contracted to 6s4p3d1f1g pattern {711111/2111/211/2/1}
 Group   2 Type O   : 12s5p4d2f1g contracted to 6s4p3d1f1g pattern {711111/2111/211/2/1}
 Group   3 Type N   : 12s5p4d2f1g contracted to 6s4p3d1f1g pattern {711111/2111/211/2/1}
 Group   4 Type H   : 5s2p1d contracted to 3s1p1d pattern {311/2/1}

Atom   0C    basis set group =>   1
Atom   1C    basis set group =>   1
Atom   2C    basis set group =>   1
Atom   3C    basis set group =>   1
Atom   4C    basis set group =>   1
Atom   5O    basis set group =>   2
Atom   6C    basis set group =>   1
Atom   7C    basis set group =>   1
Atom   8C    basis set group =>   1
Atom   9C    basis set group =>   1
Atom  10C    basis set group =>   1
Atom  11N    basis set group =>   3
Atom  12C    basis set group =>   1
Atom  13C    basis set group =>   1
Atom  14C    basis set group =>   1
Atom  15C    basis set group =>   1
Atom  16O    basis set group =>   2
Atom  17N    basis set group =>   3
Atom  18C    basis set group =>   1
Atom  19C    basis set group =>   1
Atom  20H    basis set group =>   4
Atom  21H    basis set group =>   4
Atom  22H    basis set group =>   4
Atom  23H    basis set group =>   4
Atom  24H    basis set group =>   4
Atom  25H    basis set group =>   4
Atom  26H    basis set group =>   4
Atom  27H    basis set group =>   4
Atom  28H    basis set group =>   4
Atom  29H    basis set group =>   4
Atom  30H    basis set group =>   4
Atom  31H    basis set group =>   4
Atom  32H    basis set group =>   4
Atom  33H    basis set group =>   4
---------------------------------
AUXILIARY/C BASIS SET INFORMATION
---------------------------------
There are 4 groups of distinct atoms

 Group   1 Type C   : 8s6p5d3f1g contracted to 8s6p4d3f1g pattern {11111111/111111/2111/111/1}
 Group   2 Type O   : 8s6p5d3f1g contracted to 8s6p4d3f1g pattern {11111111/111111/2111/111/1}
 Group   3 Type N   : 8s6p5d3f1g contracted to 8s6p4d3f1g pattern {11111111/111111/2111/111/1}
 Group   4 Type H   : 4s3p2d contracted to 4s2p1d pattern {1111/21/2}

Atom   0C    basis set group =>   1
Atom   1C    basis set group =>   1
Atom   2C    basis set group =>   1
Atom   3C    basis set group =>   1
Atom   4C    basis set group =>   1
Atom   5O    basis set group =>   2
Atom   6C    basis set group =>   1
Atom   7C    basis set group =>   1
Atom   8C    basis set group =>   1
Atom   9C    basis set group =>   1
Atom  10C    basis set group =>   1
Atom  11N    basis set group =>   3
Atom  12C    basis set group =>   1
Atom  13C    basis set group =>   1
Atom  14C    basis set group =>   1
Atom  15C    basis set group =>   1
Atom  16O    basis set group =>   2
Atom  17N    basis set group =>   3
Atom  18C    basis set group =>   1
Atom  19C    basis set group =>   1
Atom  20H    basis set group =>   4
Atom  21H    basis set group =>   4
Atom  22H    basis set group =>   4
Atom  23H    basis set group =>   4
Atom  24H    basis set group =>   4
Atom  25H    basis set group =>   4
Atom  26H    basis set group =>   4
Atom  27H    basis set group =>   4
Atom  28H    basis set group =>   4
Atom  29H    basis set group =>   4
Atom  30H    basis set group =>   4
Atom  31H    basis set group =>   4
Atom  32H    basis set group =>   4
Atom  33H    basis set group =>   4
------------------------------------------------------------------------------
                           ORCA GTO INTEGRAL CALCULATION
                           -- RI-GTO INTEGRALS CHOSEN --
------------------------------------------------------------------------------
------------------------------------------------------------------------------
                   ___                                                        
                  /   \      - P O W E R E D   B Y -                         
                 /     \                                                     
                 |  |  |   _    _      __       _____    __    __             
                 |  |  |  | |  | |    /  \     |  _  \  |  |  /  |          
                  \  \/   | |  | |   /    \    | | | |  |  | /  /          
                 / \  \   | |__| |  /  /\  \   | |_| |  |  |/  /          
                |  |  |   |  __  | /  /__\  \  |    /   |      \           
                |  |  |   | |  | | |   __   |  |    \   |  |\   \          
                \     /   | |  | | |  |  |  |  | |\  \  |  | \   \       
                 \___/    |_|  |_| |__|  |__|  |_| \__\ |__|  \__/        
                                                                              
                      - O R C A' S   B I G   F R I E N D -                    
                                      &                                       
                       - I N T E G R A L  F E E D E R -                       
                                                                              
 v1 FN, 2020, v2 2021                                                         
------------------------------------------------------------------------------


Reading SHARK input file HBQ_GS.SHARKINP.tmp ... ok
----------------------
SHARK INTEGRAL PACKAGE
----------------------

Number of atoms                             ...     34
Number of basis functions                   ...    564
Number of shells                            ...    256
Maximum angular momentum                    ...      2
Integral batch strategy                     ... SHARK/LIBINT Hybrid
RI-J (if used) integral strategy            ... SPLIT-RIJ (Revised 2003 algorithm where possible)
Printlevel                                  ...      1
Contraction scheme used                     ... SEGMENTED contraction
Coulomb Range Separation                    ... NOT USED
Exchange Range Separation                   ... NOT USED
Finite Nucleus Model                        ... NOT USED
Auxiliary Coulomb fitting basis             ... AVAILABLE
   # of basis functions in Aux-J            ...   1134
   # of shells in Aux-J                     ...    370
   Maximum angular momentum in Aux-J        ...      4
Auxiliary J/K fitting basis                 ... NOT available
Auxiliary Correlation fitting basis         ... AVAILABLE
   # of basis functions in Aux-C            ...   1730
   # of shells in Aux-C                     ...    538
   Maximum angular momentum in Aux-C        ...      4
Auxiliary 'external' fitting basis          ... NOT available
Integral threshold                          ...     2.500000e-11
Primitive cut-off                           ...     2.500000e-12
Primitive pair pre-selection threshold      ...     2.500000e-12

Calculating pre-screening integrals         ... done (  0.1 sec) Dimension = 256
Organizing shell pair data                  ... done (  0.3 sec)
Shell pair information
Total number of shell pairs                 ...     32896
Shell pairs after pre-screening             ...     24974
Total number of primitive shell pairs       ...    108362
Primitive shell pairs kept                  ...     54597
          la=0 lb=0:   7268 shell pairs
          la=1 lb=0:   8166 shell pairs
          la=1 lb=1:   2303 shell pairs
          la=2 lb=0:   4198 shell pairs
          la=2 lb=1:   2386 shell pairs
          la=2 lb=2:    653 shell pairs

Calculating one electron integrals          ... done (  0.1 sec)
Calculating RI/J V-Matrix + Cholesky decomp.... done (  0.2 sec)
Calculating RI/C V-Matrix + Cholesky decomp.... done (  0.5 sec)
Calculating Nuclear repulsion               ... done (  0.0 sec) ENN=   1509.245597815369 Eh

SHARK setup successfully completed in   1.8 seconds

Maximum memory used throughout the entire GTOINT-calculation: 193.0 MB
-------------------------------------------------------------------------------
                                 ORCA SCF
-------------------------------------------------------------------------------

------------
SCF SETTINGS
------------
Hamiltonian:
 Density Functional     Method          .... DFT(GTOs)
 Exchange Functional    Exchange        .... B88
   X-Alpha parameter    XAlpha          ....  0.666667
   Becke's b parameter  XBeta           ....  0.004200
 Correlation Functional Correlation     .... LYP
 LDA part of GGA corr.  LDAOpt          .... VWN-3
 Gradients option       PostSCFGGA      .... off
 Hybrid DFT is turned on
   Fraction HF Exchange ScalHFX         ....  0.200000
   Scaling of DF-GGA-X  ScalDFX         ....  0.720000
   Scaling of DF-GGA-C  ScalDFC         ....  0.810000
   Scaling of DF-LDA-C  ScalLDAC        ....  1.000000
   Perturbative correction              ....  0.000000
   Density functional embedding theory  .... OFF
   NL short-range parameter             ....  4.800000
 RI-approximation to the Coulomb term is turned on
   Number of AuxJ basis functions       .... 1134
   RIJ-COSX (HFX calculated with COS-X)).... on


General Settings:
 Integral files         IntName         .... HBQ_GS
 Hartree-Fock type      HFTyp           .... RHF
 Total Charge           Charge          ....    0
 Multiplicity           Mult            ....    1
 Number of Electrons    NEL             ....  140
 Basis Dimension        Dim             ....  564
 Nuclear Repulsion      ENuc            ....   1509.2455978154 Eh

Convergence Acceleration:
 DIIS                   CNVDIIS         .... on
   Start iteration      DIISMaxIt       ....    12
   Startup error        DIISStart       ....  0.200000
   # of expansion vecs  DIISMaxEq       ....     5
   Bias factor          DIISBfac        ....   1.050
   Max. coefficient     DIISMaxC        ....  10.000
 Trust-Rad. Augm. Hess. CNVTRAH         .... auto
   Auto Start mean grad. ratio tolernc. ....  1.125000
   Auto Start start iteration           ....    20
   Auto Start num. interpolation iter.  ....    10
   Max. Number of Micro iterations      ....    16
   Max. Number of Macro iterations      .... Maxiter - #DIIS iter
   Number of Davidson start vectors     ....     2
   Converg. threshold I  (grad. norm)   ....   1.000e-05
   Converg. threshold II (energy diff.) ....   1.000e-08
   Grad. Scal. Fac. for Micro threshold ....   0.100
   Minimum threshold for Micro iter.    ....   0.010
   NR start threshold (gradient norm)   ....   0.001
   Initial trust radius                 ....   0.400
   Minimum AH scaling param. (alpha)    ....   1.000
   Maximum AH scaling param. (alpha)    .... 1000.000
   Orbital update algorithm             .... Taylor
   White noise on init. David. guess    .... on
   Maximum white noise                  ....   0.010
   Quad. conv. algorithm                .... NR
 SOSCF                  CNVSOSCF        .... on
   Start iteration      SOSCFMaxIt      ....   150
   Startup grad/error   SOSCFStart      ....  0.003300
 Level Shifting         CNVShift        .... on
   Level shift para.    LevelShift      ....    0.2500
   Turn off err/grad.   ShiftErr        ....    0.0010
 Zerner damping         CNVZerner       .... off
 Static damping         CNVDamp         .... on
   Fraction old density DampFac         ....    0.7000
   Max. Damping (<1)    DampMax         ....    0.9800
   Min. Damping (>=0)   DampMin         ....    0.0000
   Turn off err/grad.   DampErr         ....    0.1000
 Fernandez-Rico         CNVRico         .... off

SCF Procedure:
 Maximum # iterations   MaxIter         ....   125
 SCF integral mode      SCFMode         .... Direct
   Integral package                     .... SHARK and LIBINT hybrid scheme
 Reset frequency        DirectResetFreq ....    20
 Integral Threshold     Thresh          ....  2.500e-11 Eh
 Primitive CutOff       TCut            ....  2.500e-12 Eh

Convergence Tolerance:
 Convergence Check Mode ConvCheckMode   .... Total+1el-Energy
 Convergence forced     ConvForced      .... 0
 Energy Change          TolE            ....  1.000e-08 Eh
 1-El. energy change                    ....  1.000e-05 Eh
 Orbital Gradient       TolG            ....  1.000e-05
 Orbital Rotation angle TolX            ....  1.000e-05
 DIIS Error             TolErr          ....  5.000e-07


Diagonalization of the overlap matrix:
Smallest eigenvalue                        ... 3.810e-06
Time for diagonalization                   ...    0.052 sec
Threshold for overlap eigenvalues          ... 1.000e-08
Number of eigenvalues below threshold      ... 0
Time for construction of square roots      ...    0.044 sec
Total time needed                          ...    0.096 sec

Time for model grid setup =    0.599 sec

------------------------------
INITIAL GUESS: MODEL POTENTIAL
------------------------------
Loading Hartree-Fock densities                     ... done
Calculating cut-offs                               ... done
Initializing the effective Hamiltonian             ... done
Setting up the integral package (SHARK)            ... done
Starting the Coulomb interaction                   ... done (   0.9 sec)
Reading the grid                                   ... done
Mapping shells                                     ... done
Starting the XC term evaluation                    ... done (   0.8 sec)
  promolecular density results
     # of electrons  =    139.975393151
     EX              =   -116.039107518
     EC              =     -4.784476576
     EX+EC           =   -120.823584094
Transforming the Hamiltonian                       ... done (   0.0 sec)
Diagonalizing the Hamiltonian                      ... done (   0.0 sec)
Back transforming the eigenvectors                 ... done (   0.0 sec)
Now organizing SCF variables                       ... done
                      ------------------
                      INITIAL GUESS DONE (   2.4 sec)
                      ------------------
-------------------
DFT GRID GENERATION
-------------------

General Integration Accuracy     IntAcc      ... 4.388
Radial Grid Type                 RadialGrid  ... OptM3 with GC (2021)
Angular Grid (max. ang.)         AngularGrid ... 4 (Lebedev-302)
Angular grid pruning method      GridPruning ... 4 (adaptive)
Weight generation scheme         WeightScheme... Becke
Basis function cutoff            BFCut       ... 1.0000e-11
Integration weight cutoff        WCut        ... 1.0000e-14
Angular grids for H and He will be reduced by one unit
Partially contracted basis set               ... off
Rotationally invariant grid construction     ... off

Total number of grid points                  ...   164452
Total number of batches                      ...     2587
Average number of points per batch           ...       63
Average number of grid points per atom       ...     4837
Time for grid setup =    1.890 sec

--------------------
COSX GRID GENERATION
--------------------

GRIDX 1
-------
General Integration Accuracy     IntAcc      ... 3.816
Radial Grid Type                 RadialGrid  ... OptM3 with GC (2021)
Angular Grid (max. ang.)         AngularGrid ... 1 (Lebedev-50)
Angular grid pruning method      GridPruning ... 4 (adaptive)
Weight generation scheme         WeightScheme... Becke
Basis function cutoff            BFCut       ... 1.0000e-11
Integration weight cutoff        WCut        ... 1.0000e-14
Angular grids for H and He will be reduced by one unit
Partially contracted basis set               ... on
Rotationally invariant grid construction     ... off

Total number of grid points                  ...    20888
Total number of batches                      ...      343
Average number of points per batch           ...       60
Average number of grid points per atom       ...      614
UseSFitting                                  ... on

GRIDX 2
-------
General Integration Accuracy     IntAcc      ... 4.020
Radial Grid Type                 RadialGrid  ... OptM3 with GC (2021)
Angular Grid (max. ang.)         AngularGrid ... 2 (Lebedev-110)
Angular grid pruning method      GridPruning ... 4 (adaptive)
Weight generation scheme         WeightScheme... Becke
Basis function cutoff            BFCut       ... 1.0000e-11
Integration weight cutoff        WCut        ... 1.0000e-14
Angular grids for H and He will be reduced by one unit
Partially contracted basis set               ... on
Rotationally invariant grid construction     ... off

Total number of grid points                  ...    45660
Total number of batches                      ...      730
Average number of points per batch           ...       62
Average number of grid points per atom       ...     1343
UseSFitting                                  ... on

GRIDX 3
-------
General Integration Accuracy     IntAcc      ... 4.338
Radial Grid Type                 RadialGrid  ... OptM3 with GC (2021)
Angular Grid (max. ang.)         AngularGrid ... 3 (Lebedev-194)
Angular grid pruning method      GridPruning ... 4 (adaptive)
Weight generation scheme         WeightScheme... Becke
Basis function cutoff            BFCut       ... 1.0000e-11
Integration weight cutoff        WCut        ... 1.0000e-14
Angular grids for H and He will be reduced by one unit
Partially contracted basis set               ... on
Rotationally invariant grid construction     ... off

Total number of grid points                  ...   100021
Total number of batches                      ...     1580
Average number of points per batch           ...       63
Average number of grid points per atom       ...     2942
UseSFitting                                  ... on

Time for X-Grid setup             =    3.257 sec


--------------------
CPCM SOLVATION MODEL
--------------------
CPCM parameters:
  Epsilon                                         ...      80.4000
  Refrac                                          ...       1.3300
  Rsolv                                           ...       1.3000
  Surface type                                    ... GAUSSIAN VDW
  Epsilon function type                           ...         CPCM
Radii:
 Radius for C  used is    3.8550 Bohr (=   2.0400 Ang.)
 Radius for O  used is    3.4469 Bohr (=   1.8240 Ang.)
 Radius for N  used is    3.5149 Bohr (=   1.8600 Ang.)
 Radius for H  used is    2.4944 Bohr (=   1.3200 Ang.)
Calculating surface                               ...        done! (  0.0s)
GEPOL surface points                              ...         1780
GEPOL Volume                                      ...    2108.3349
GEPOL Surface-area                                ...    1072.8420
Calculating surface distance matrix               ...        done! (  0.0s)
Performing Cholesky decomposition & store         ...        done! (  0.3s)
Overall time for CPCM initialization              ...                 0.3s
--------------
SCF ITERATIONS
--------------
ITER       Energy         Delta-E        Max-DP      RMS-DP      [F,P]     Damp
               ***  Starting incremental Fock matrix formation  ***
  0   -877.9531273357   0.000000000000 0.11053922  0.00154601  0.3160876 0.7000
  1   -878.1751783196  -0.222050983918 0.12703697  0.00134612  0.1245703 0.7000
                               ***Turning on DIIS***
  2   -878.2660854668  -0.090907147133 0.16416015  0.00235093  0.0345924 0.0000
  3   -878.4089034527  -0.142817985899 0.13055760  0.00105908  0.0598448 0.0000
  4   -878.4383732795  -0.029469826864 0.03748717  0.00035524  0.0158851 0.0000
  5   -878.4401931694  -0.001819889913 0.02327770  0.00016912  0.0093759 0.0000
                      *** Initiating the SOSCF procedure ***
                           *** Shutting down DIIS ***
                      *** Re-Reading the Fockian *** 
                      *** Removing any level shift *** 
ITER      Energy       Delta-E        Grad      Rot      Max-DP    RMS-DP
  6   -878.44033850  -0.0001453319  0.000265  0.000265  0.005870  0.000052
               *** Restarting incremental Fock matrix formation ***
  7   -878.44034861  -0.0000101132  0.000136  0.000525  0.007299  0.000057
  8   -878.44034760   0.0000010133  0.000269  0.000332  0.001121  0.000011
  9   -878.44035089  -0.0000032921  0.000034  0.000074  0.001004  0.000010
 10   -878.44035083   0.0000000618  0.000045  0.000044  0.000684  0.000004
 11   -878.44035095  -0.0000001164  0.000005  0.000027  0.000570  0.000005
 12   -878.44035094   0.0000000108  0.000007  0.000016  0.000156  0.000001
                  ***Gradient check signals convergence***
              ***Rediagonalizing the Fockian in SOSCF/NRSCF***

               *****************************************************
               *                     SUCCESS                       *
               *           SCF CONVERGED AFTER  13 CYCLES          *
               *****************************************************

Old exchange energy                            =    -23.551450547 Eh
New exchange energy                            =    -23.551465295 Eh
Exchange energy change after final integration =     -0.000014748 Eh
Total energy after final integration           =   -878.440365685 Eh
Final COS-X integration done in                =    59.324 sec

----------------
TOTAL SCF ENERGY
----------------

Total Energy       :         -878.44036569 Eh          -23903.57758 eV

Components:
Nuclear Repulsion  :         1509.24559782 Eh           41068.66061 eV
Electronic Energy  :        -2387.68596350 Eh          -64972.23819 eV
One Electron Energy:        -4191.95597859 Eh         -114068.92133 eV
Two Electron Energy:         1804.27001509 Eh           49096.68314 eV
Max COSX asymmetry :            0.00000128 Eh               0.00003 eV
CPCM Dielectric    :           -0.02397464 Eh              -0.65238 eV

Virial components:
Potential Energy   :        -1752.64630037 Eh          -47691.93044 eV
Kinetic Energy     :          874.20593468 Eh           23788.35286 eV
Virial Ratio       :            2.00484375


DFT components:
N(Alpha)           :       70.000054470471 electrons
N(Beta)            :       70.000054470471 electrons
N(Total)           :      140.000108940942 electrons
E(X)               :      -93.626052783428 Eh       
E(C)               :       -6.157137275759 Eh       
E(XC)              :      -99.783190059186 Eh       
DFET-embed. en.    :        0.000000000000 Eh       
CPCM Solvation Model Properties:
Surface-charge          :           -0.03268730
Charge-correction       :           -0.00047020 Eh              -0.01279 eV
Free-energy (cav+disp)  :  This term is not implemented in the current solvation scheme

---------------
SCF CONVERGENCE
---------------

  Last Energy change         ...    1.7360e-10  Tolerance :   1.0000e-08
  Last MAX-Density change    ...    1.6653e-15  Tolerance :   1.0000e-07
  Last RMS-Density change    ...    1.6732e-17  Tolerance :   5.0000e-09
  Last Orbital Gradient      ...    1.3283e-06  Tolerance :   1.0000e-05
  Last Orbital Rotation      ...    4.5045e-06  Tolerance :   1.0000e-05

             **** THE GBW FILE WAS UPDATED (HBQ_GS.gbw) ****
             **** DENSITY HBQ_GS.scfp WAS UPDATED ****
             **** ENERGY FILE WAS UPDATED (HBQ_GS.en.tmp) ****
             **** THE GBW FILE WAS UPDATED (HBQ_GS.gbw) ****
             **** DENSITY HBQ_GS.scfp WAS UPDATED ****
----------------
ORBITAL ENERGIES
----------------

  NO   OCC          E(Eh)            E(eV) 
   0   2.0000     -19.175270      -521.7856 
   1   2.0000     -19.101345      -519.7740 
   2   2.0000     -14.352792      -390.5593 
   3   2.0000     -14.318770      -389.6335 
   4   2.0000     -10.322170      -280.8805 
   5   2.0000     -10.248213      -278.8680 
   6   2.0000     -10.226618      -278.2804 
   7   2.0000     -10.212380      -277.8930 
   8   2.0000     -10.202649      -277.6282 
   9   2.0000     -10.198706      -277.5209 
  10   2.0000     -10.198029      -277.5025 
  11   2.0000     -10.197028      -277.4752 
  12   2.0000     -10.196731      -277.4672 
  13   2.0000     -10.193873      -277.3894 
  14   2.0000     -10.184055      -277.1222 
  15   2.0000     -10.184041      -277.1218 
  16   2.0000     -10.183942      -277.1191 
  17   2.0000     -10.183282      -277.1012 
  18   2.0000     -10.181963      -277.0653 
  19   2.0000     -10.180967      -277.0382 
  20   2.0000      -1.117018       -30.3956 
  21   2.0000      -1.023825       -27.8597 
  22   2.0000      -0.956405       -26.0251 
  23   2.0000      -0.947738       -25.7893 
  24   2.0000      -0.882365       -24.0104 
  25   2.0000      -0.840252       -22.8644 
  26   2.0000      -0.808735       -22.0068 
  27   2.0000      -0.784642       -21.3512 
  28   2.0000      -0.752915       -20.4878 
  29   2.0000      -0.745726       -20.2922 
  30   2.0000      -0.722257       -19.6536 
  31   2.0000      -0.707659       -19.2564 
  32   2.0000      -0.657091       -17.8804 
  33   2.0000      -0.649660       -17.6781 
  34   2.0000      -0.632758       -17.2182 
  35   2.0000      -0.620620       -16.8879 
  36   2.0000      -0.575544       -15.6614 
  37   2.0000      -0.548330       -14.9208 
  38   2.0000      -0.537777       -14.6337 
  39   2.0000      -0.532134       -14.4801 
  40   2.0000      -0.517712       -14.0877 
  41   2.0000      -0.497674       -13.5424 
  42   2.0000      -0.493954       -13.4412 
  43   2.0000      -0.484692       -13.1891 
  44   2.0000      -0.480505       -13.0752 
  45   2.0000      -0.467698       -12.7267 
  46   2.0000      -0.446118       -12.1395 
  47   2.0000      -0.445835       -12.1318 
  48   2.0000      -0.437839       -11.9142 
  49   2.0000      -0.430841       -11.7238 
  50   2.0000      -0.420783       -11.4501 
  51   2.0000      -0.415388       -11.3033 
  52   2.0000      -0.408566       -11.1177 
  53   2.0000      -0.407056       -11.0766 
  54   2.0000      -0.406346       -11.0572 
  55   2.0000      -0.402062       -10.9407 
  56   2.0000      -0.386873       -10.5274 
  57   2.0000      -0.385488       -10.4897 
  58   2.0000      -0.378078       -10.2880 
  59   2.0000      -0.364432        -9.9167 
  60   2.0000      -0.357057        -9.7160 
  61   2.0000      -0.338260        -9.2045 
  62   2.0000      -0.320284        -8.7154 
  63   2.0000      -0.307882        -8.3779 
  64   2.0000      -0.291394        -7.9292 
  65   2.0000      -0.283124        -7.7042 
  66   2.0000      -0.263576        -7.1723 
  67   2.0000      -0.251988        -6.8569 
  68   2.0000      -0.250442        -6.8149 
  69   2.0000      -0.230651        -6.2763 
  70   0.0000      -0.063806        -1.7363 
  71   0.0000      -0.055690        -1.5154 
  72   0.0000      -0.018444        -0.5019 
  73   0.0000       0.008467         0.2304 
  74   0.0000       0.031917         0.8685 
  75   0.0000       0.043290         1.1780 
  76   0.0000       0.053899         1.4667 
  77   0.0000       0.059380         1.6158 
  78   0.0000       0.063822         1.7367 
  79   0.0000       0.077226         2.1014 
  80   0.0000       0.079256         2.1567 
  81   0.0000       0.083536         2.2731 
  82   0.0000       0.088809         2.4166 
  83   0.0000       0.092333         2.5125 
  84   0.0000       0.099664         2.7120 
  85   0.0000       0.106358         2.8941 
  86   0.0000       0.111118         3.0237 
  87   0.0000       0.115029         3.1301 
  88   0.0000       0.116686         3.1752 
  89   0.0000       0.122238         3.3263 
  90   0.0000       0.128571         3.4986 
  91   0.0000       0.131619         3.5815 
  92   0.0000       0.145278         3.9532 
  93   0.0000       0.146773         3.9939 
  94   0.0000       0.152464         4.1488 
  95   0.0000       0.160442         4.3659 
  96   0.0000       0.167534         4.5588 
  97   0.0000       0.169915         4.6236 
  98   0.0000       0.174118         4.7380 
  99   0.0000       0.178112         4.8467 
 100   0.0000       0.186784         5.0826 
 101   0.0000       0.188992         5.1427 
 102   0.0000       0.192863         5.2481 
 103   0.0000       0.201041         5.4706 
 104   0.0000       0.208003         5.6601 
 105   0.0000       0.216746         5.8979 
 106   0.0000       0.218932         5.9575 
 107   0.0000       0.221304         6.0220 
 108   0.0000       0.226479         6.1628 
 109   0.0000       0.236117         6.4251 
 110   0.0000       0.240151         6.5348 
 111   0.0000       0.246122         6.6973 
 112   0.0000       0.254274         6.9192 
 113   0.0000       0.260529         7.0894 
 114   0.0000       0.262631         7.1465 
 115   0.0000       0.266022         7.2388 
 116   0.0000       0.267691         7.2842 
 117   0.0000       0.279777         7.6131 
 118   0.0000       0.282064         7.6754 
 119   0.0000       0.287395         7.8204 
 120   0.0000       0.287983         7.8364 
 121   0.0000       0.296544         8.0694 
 122   0.0000       0.299279         8.1438 
 123   0.0000       0.303711         8.2644 
 124   0.0000       0.308355         8.3908 
 125   0.0000       0.315857         8.5949 
 126   0.0000       0.317054         8.6275 
 127   0.0000       0.324004         8.8166 
 128   0.0000       0.330447         8.9919 
 129   0.0000       0.336711         9.1624 
 130   0.0000       0.340116         9.2550 
 131   0.0000       0.343881         9.3575 
 132   0.0000       0.348294         9.4776 
 133   0.0000       0.356526         9.7016 
 134   0.0000       0.358584         9.7576 
 135   0.0000       0.368194        10.0191 
 136   0.0000       0.373744        10.1701 
 137   0.0000       0.382002        10.3948 
 138   0.0000       0.382075        10.3968 
 139   0.0000       0.394236        10.7277 
 140   0.0000       0.395164        10.7530 
 141   0.0000       0.400721        10.9042 
 142   0.0000       0.403286        10.9740 
 143   0.0000       0.408005        11.1024 
 144   0.0000       0.412689        11.2298 
 145   0.0000       0.414696        11.2845 
 146   0.0000       0.419405        11.4126 
 147   0.0000       0.420848        11.4518 
 148   0.0000       0.431218        11.7341 
 149   0.0000       0.438029        11.9194 
 150   0.0000       0.444059        12.0834 
 151   0.0000       0.450798        12.2668 
 152   0.0000       0.461214        12.5503 
 153   0.0000       0.463923        12.6240 
 154   0.0000       0.466563        12.6958 
 155   0.0000       0.467574        12.7233 
 156   0.0000       0.469434        12.7739 
 157   0.0000       0.475827        12.9479 
 158   0.0000       0.477193        12.9851 
 159   0.0000       0.485447        13.2097 
 160   0.0000       0.492602        13.4044 
 161   0.0000       0.498239        13.5578 
 162   0.0000       0.500170        13.6103 
 163   0.0000       0.505421        13.7532 
 164   0.0000       0.515413        14.0251 
 165   0.0000       0.519898        14.1471 
 166   0.0000       0.522286        14.2121 
 167   0.0000       0.526942        14.3388 
 168   0.0000       0.535948        14.5839 
 169   0.0000       0.539128        14.6704 
 170   0.0000       0.548724        14.9315 
 171   0.0000       0.554361        15.0849 
 172   0.0000       0.559497        15.2247 
 173   0.0000       0.576579        15.6895 
 174   0.0000       0.579359        15.7652 
 175   0.0000       0.590541        16.0694 
 176   0.0000       0.601069        16.3559 
 177   0.0000       0.603495        16.4219 
 178   0.0000       0.606962        16.5163 
 179   0.0000       0.610323        16.6077 
 180   0.0000       0.611980        16.6528 
 181   0.0000       0.620436        16.8829 
 182   0.0000       0.635029        17.2800 
 183   0.0000       0.642547        17.4846 
 184   0.0000       0.656328        17.8596 
 185   0.0000       0.659867        17.9559 
 186   0.0000       0.663380        18.0515 
 187   0.0000       0.674595        18.3567 
 188   0.0000       0.676182        18.3998 
 189   0.0000       0.685456        18.6522 
 190   0.0000       0.689079        18.7508 
 191   0.0000       0.690931        18.8012 
 192   0.0000       0.699477        19.0337 
 193   0.0000       0.701297        19.0833 
 194   0.0000       0.705610        19.2006 
 195   0.0000       0.717111        19.5136 
 196   0.0000       0.720055        19.5937 
 197   0.0000       0.732106        19.9216 
 198   0.0000       0.739263        20.1164 
 199   0.0000       0.745670        20.2907 
 200   0.0000       0.754129        20.5209 
 201   0.0000       0.758382        20.6366 
 202   0.0000       0.763463        20.7749 
 203   0.0000       0.773541        21.0491 
 204   0.0000       0.778992        21.1975 
 205   0.0000       0.785786        21.3823 
 206   0.0000       0.792193        21.5567 
 207   0.0000       0.798830        21.7373 
 208   0.0000       0.803104        21.8536 
 209   0.0000       0.811919        22.0935 
 210   0.0000       0.822038        22.3688 
 211   0.0000       0.826757        22.4972 
 212   0.0000       0.837746        22.7962 
 213   0.0000       0.842819        22.9343 
 214   0.0000       0.845006        22.9938 
 215   0.0000       0.852825        23.2065 
 216   0.0000       0.858820        23.3697 
 217   0.0000       0.864844        23.5336 
 218   0.0000       0.871264        23.7083 
 219   0.0000       0.875629        23.8271 
 220   0.0000       0.880544        23.9608 
 221   0.0000       0.890166        24.2227 
 222   0.0000       0.912120        24.8201 
 223   0.0000       0.916640        24.9430 
 224   0.0000       0.924842        25.1662 
 225   0.0000       0.935031        25.4435 
 226   0.0000       0.947729        25.7890 
 227   0.0000       0.948632        25.8136 
 228   0.0000       0.956399        26.0249 
 229   0.0000       0.972657        26.4673 
 230   0.0000       0.984032        26.7769 
 231   0.0000       0.996626        27.1196 
 232   0.0000       1.001427        27.2502 
 233   0.0000       1.004572        27.3358 
 234   0.0000       1.018086        27.7035 
 235   0.0000       1.024734        27.8844 
 236   0.0000       1.029275        28.0080 
 237   0.0000       1.031671        28.0732 
 238   0.0000       1.040726        28.3196 
 239   0.0000       1.054844        28.7038 
 240   0.0000       1.079825        29.3835 
 241   0.0000       1.084514        29.5111 
 242   0.0000       1.091516        29.7016 
 243   0.0000       1.098119        29.8813 
 244   0.0000       1.101498        29.9733 
 245   0.0000       1.106036        30.0968 
 246   0.0000       1.118527        30.4367 
 247   0.0000       1.137702        30.9584 
 248   0.0000       1.152046        31.3488 
 249   0.0000       1.156222        31.4624 
 250   0.0000       1.183656        32.2089 
 251   0.0000       1.188343        32.3365 
 252   0.0000       1.189609        32.3709 
 253   0.0000       1.199446        32.6386 
 254   0.0000       1.207989        32.8711 
 255   0.0000       1.210783        32.9471 
 256   0.0000       1.223406        33.2906 
 257   0.0000       1.250007        34.0144 
 258   0.0000       1.251979        34.0681 
 259   0.0000       1.263249        34.3748 
 260   0.0000       1.271250        34.5925 
 261   0.0000       1.279464        34.8160 
 262   0.0000       1.287547        35.0359 
 263   0.0000       1.289119        35.0787 
 264   0.0000       1.306573        35.5537 
 265   0.0000       1.324417        36.0392 
 266   0.0000       1.337917        36.4066 
 267   0.0000       1.341747        36.5108 
 268   0.0000       1.347186        36.6588 
 269   0.0000       1.359406        36.9913 
 270   0.0000       1.364360        37.1261 
 271   0.0000       1.375067        37.4175 
 272   0.0000       1.396235        37.9935 
 273   0.0000       1.400114        38.0990 
 274   0.0000       1.402588        38.1663 
 275   0.0000       1.413059        38.4513 
 276   0.0000       1.419803        38.6348 
 277   0.0000       1.427785        38.8520 
 278   0.0000       1.442418        39.2502 
 279   0.0000       1.446582        39.3635 
 280   0.0000       1.456829        39.6423 
 281   0.0000       1.461153        39.7600 
 282   0.0000       1.466925        39.9170 
 283   0.0000       1.478476        40.2314 
 284   0.0000       1.494363        40.6637 
 285   0.0000       1.501381        40.8546 
 286   0.0000       1.506074        40.9824 
 287   0.0000       1.515240        41.2318 
 288   0.0000       1.519620        41.3510 
 289   0.0000       1.531186        41.6657 
 290   0.0000       1.537674        41.8422 
 291   0.0000       1.546816        42.0910 
 292   0.0000       1.551270        42.2122 
 293   0.0000       1.556580        42.3567 
 294   0.0000       1.563381        42.5418 
 295   0.0000       1.567379        42.6505 
 296   0.0000       1.572245        42.7830 
 297   0.0000       1.578589        42.9556 
 298   0.0000       1.579824        42.9892 
 299   0.0000       1.589620        43.2558 
 300   0.0000       1.592185        43.3255 
 301   0.0000       1.605176        43.6791 
 302   0.0000       1.611998        43.8647 
 303   0.0000       1.616571        43.9891 
 304   0.0000       1.626820        44.2680 
 305   0.0000       1.631287        44.3896 
 306   0.0000       1.643968        44.7346 
 307   0.0000       1.662835        45.2480 
 308   0.0000       1.666797        45.3559 
 309   0.0000       1.672013        45.4978 
 310   0.0000       1.677996        45.6606 
 311   0.0000       1.683809        45.8188 
 312   0.0000       1.688329        45.9418 
 313   0.0000       1.692799        46.0634 
 314   0.0000       1.710554        46.5465 
 315   0.0000       1.712960        46.6120 
 316   0.0000       1.729692        47.0673 
 317   0.0000       1.737905        47.2908 
 318   0.0000       1.742019        47.4028 
 319   0.0000       1.757786        47.8318 
 320   0.0000       1.766124        48.0587 
 321   0.0000       1.768927        48.1350 
 322   0.0000       1.772876        48.2424 
 323   0.0000       1.781826        48.4859 
 324   0.0000       1.793281        48.7977 
 325   0.0000       1.815666        49.4068 
 326   0.0000       1.828888        49.7666 
 327   0.0000       1.836320        49.9688 
 328   0.0000       1.856233        50.5107 
 329   0.0000       1.862066        50.6694 
 330   0.0000       1.874274        51.0016 
 331   0.0000       1.892372        51.4941 
 332   0.0000       1.899254        51.6813 
 333   0.0000       1.909622        51.9635 
 334   0.0000       1.921041        52.2742 
 335   0.0000       1.931310        52.5536 
 336   0.0000       1.939603        52.7793 
 337   0.0000       1.948940        53.0333 
 338   0.0000       1.966110        53.5006 
 339   0.0000       1.991521        54.1920 
 340   0.0000       2.000833        54.4454 
 341   0.0000       2.005450        54.5711 
 342   0.0000       2.028951        55.2106 
 343   0.0000       2.039375        55.4942 
 344   0.0000       2.054520        55.9063 
 345   0.0000       2.058447        56.0132 
 346   0.0000       2.069449        56.3126 
 347   0.0000       2.079851        56.5956 
 348   0.0000       2.095217        57.0137 
 349   0.0000       2.103682        57.2441 
 350   0.0000       2.136970        58.1499 
 351   0.0000       2.150090        58.5069 
 352   0.0000       2.177372        59.2493 
 353   0.0000       2.189415        59.5770 
 354   0.0000       2.197680        59.8019 
 355   0.0000       2.208593        60.0989 
 356   0.0000       2.217220        60.3336 
 357   0.0000       2.223372        60.5010 
 358   0.0000       2.229073        60.6562 
 359   0.0000       2.237785        60.8932 
 360   0.0000       2.251505        61.2666 
 361   0.0000       2.268738        61.7355 
 362   0.0000       2.281710        62.0885 
 363   0.0000       2.287963        62.2586 
 364   0.0000       2.297868        62.5282 
 365   0.0000       2.309709        62.8504 
 366   0.0000       2.322271        63.1922 
 367   0.0000       2.333951        63.5100 
 368   0.0000       2.340760        63.6953 
 369   0.0000       2.347984        63.8919 
 370   0.0000       2.353626        64.0454 
 371   0.0000       2.361659        64.2640 
 372   0.0000       2.373624        64.5896 
 373   0.0000       2.390366        65.0452 
 374   0.0000       2.400527        65.3217 
 375   0.0000       2.403280        65.3966 
 376   0.0000       2.410636        65.5968 
 377   0.0000       2.436641        66.3044 
 378   0.0000       2.439902        66.3931 
 379   0.0000       2.446242        66.5656 
 380   0.0000       2.456840        66.8540 
 381   0.0000       2.467669        67.1487 
 382   0.0000       2.474862        67.3444 
 383   0.0000       2.476254        67.3823 
 384   0.0000       2.495805        67.9143 
 385   0.0000       2.513011        68.3825 
 386   0.0000       2.534368        68.9637 
 387   0.0000       2.560036        69.6621 
 388   0.0000       2.572482        70.0008 
 389   0.0000       2.581633        70.2498 
 390   0.0000       2.599339        70.7316 
 391   0.0000       2.612644        71.0937 
 392   0.0000       2.628596        71.5277 
 393   0.0000       2.637140        71.7602 
 394   0.0000       2.655796        72.2679 
 395   0.0000       2.665953        72.5443 
 396   0.0000       2.674093        72.7658 
 397   0.0000       2.676301        72.8259 
 398   0.0000       2.686990        73.1167 
 399   0.0000       2.702891        73.5494 
 400   0.0000       2.704235        73.5860 
 401   0.0000       2.710435        73.7547 
 402   0.0000       2.723178        74.1015 
 403   0.0000       2.727289        74.2133 
 404   0.0000       2.734675        74.4143 
 405   0.0000       2.749374        74.8143 
 406   0.0000       2.769512        75.3623 
 407   0.0000       2.771651        75.4205 
 408   0.0000       2.786462        75.8235 
 409   0.0000       2.800833        76.2146 
 410   0.0000       2.815423        76.6116 
 411   0.0000       2.830497        77.0217 
 412   0.0000       2.833118        77.0931 
 413   0.0000       2.840319        77.2890 
 414   0.0000       2.852316        77.6155 
 415   0.0000       2.856993        77.7427 
 416   0.0000       2.866894        78.0121 
 417   0.0000       2.884743        78.4978 
 418   0.0000       2.889525        78.6280 
 419   0.0000       2.894969        78.7761 
 420   0.0000       2.902260        78.9745 
 421   0.0000       2.913228        79.2730 
 422   0.0000       2.922603        79.5281 
 423   0.0000       2.936375        79.9028 
 424   0.0000       2.937329        79.9288 
 425   0.0000       2.944437        80.1222 
 426   0.0000       2.963536        80.6419 
 427   0.0000       2.965112        80.6848 
 428   0.0000       2.967930        80.7615 
 429   0.0000       2.979525        81.0770 
 430   0.0000       2.988406        81.3187 
 431   0.0000       3.006413        81.8087 
 432   0.0000       3.021905        82.2302 
 433   0.0000       3.038811        82.6903 
 434   0.0000       3.044046        82.8327 
 435   0.0000       3.056399        83.1688 
 436   0.0000       3.059855        83.2629 
 437   0.0000       3.069380        83.5221 
[...]
     76       0.000287   0.000656  -0.000157   0.000414   0.000191   0.000277
     77       0.000341   0.000774  -0.000194   0.000488   0.000235   0.000339
     78      -0.106450  -0.286462   0.008155   0.190015  -0.018907   0.094405
     79       0.170689   0.461955  -0.009198  -0.304028   0.029362  -0.147254
     80       0.195274   0.528198  -0.010933  -0.347763   0.033676  -0.168820
     81       0.046196   0.159257   0.171901   0.621945   0.152885  -0.700075
     82      -0.001637  -0.005670  -0.006009  -0.022511  -0.006193   0.028303
     83      -0.008745  -0.030177  -0.032475  -0.118320  -0.029810   0.136447
     84      -0.099094  -0.302394  -0.156198  -0.328713   0.081441  -0.383748
     85      -0.091865  -0.280229  -0.143536  -0.298564   0.075342  -0.354813
     86      -0.083985  -0.256176  -0.131044  -0.272052   0.068838  -0.324147
     87       0.059888  -0.019848  -0.219482   0.070354   0.000793   0.011546
     88      -0.124314   0.036182   0.458353  -0.144430  -0.002590  -0.023207
     89      -0.139686   0.040912   0.514896  -0.162371  -0.002860  -0.026111
     90      -0.022277   0.240828  -0.593295   0.131021   0.028532   0.019129
     91       0.003245  -0.017795   0.040703  -0.008631  -0.002482  -0.001212
     92       0.005987  -0.046495   0.111178  -0.024162  -0.005898  -0.003480
     93      -0.020202   0.007106  -0.001012   0.000219  -0.049549  -0.011044
     94       0.033684  -0.011818   0.001330  -0.000193   0.075456   0.016962
     95       0.036763  -0.012906   0.001471  -0.000226   0.082795   0.018607
     96       0.170776  -0.060005   0.034233  -0.009652   0.575505   0.122515
     97       0.154152  -0.054131   0.030897  -0.008766   0.529436   0.112730
     98       0.141642  -0.049734   0.028391  -0.008058   0.487544   0.103809
     99      -0.858215   0.281817  -0.079568   0.011074   0.281202   0.062755
    100       0.073504  -0.023760   0.005841  -0.000737  -0.026320  -0.005805
    101       0.171771  -0.056016   0.014911  -0.001998  -0.058637  -0.013014


-----------
IR SPECTRUM
-----------

 Mode   freq       eps      Int      T**2         TX        TY        TZ
       cm**-1   L/(mol*cm) km/mol    a.u.
----------------------------------------------------------------------------
  6:     34.39   0.000411    2.08  0.003727  ( 0.026816 -0.048635  0.025358)
  7:     37.81   0.001220    6.16  0.010067  ( 0.082380  0.018716  0.054133)
  8:     48.59   0.000327    1.65  0.002097  (-0.028082 -0.035736 -0.005611)
  9:     63.40   0.000003    0.02  0.000016  (-0.001921 -0.000395  0.003452)
 10:     93.22   0.000441    2.23  0.001475  (-0.030346  0.006701 -0.022565)
 11:     99.88   0.001817    9.18  0.005677  ( 0.000283  0.060756 -0.044557)
 12:    112.98   0.000642    3.24  0.001773  (-0.025388  0.033001 -0.006268)
 13:    126.95   0.000654    3.31  0.001608  (-0.035114 -0.016765 -0.009672)
 14:    204.04   0.000121    0.61  0.000186  (-0.011732  0.001828  0.006675)
 15:    216.87   0.000581    2.94  0.000836  (-0.025064 -0.011166 -0.009124)
 16:    228.73   0.000273    1.38  0.000373  (-0.012296 -0.000234 -0.014890)
 17:    232.99   0.001304    6.59  0.001746  (-0.002409 -0.029184  0.029815)
 18:    241.27   0.000970    4.90  0.001254  ( 0.005157 -0.015991 -0.031172)
 19:    296.99   0.000101    0.51  0.000106  (-0.001574 -0.005725  0.008422)
 20:    365.74   0.003438   17.38  0.002934  (-0.022252  0.043889  0.022634)
 21:    380.02   0.001126    5.69  0.000925  ( 0.014787 -0.026061 -0.005211)
 22:    410.58   0.000898    4.54  0.000683  ( 0.013618 -0.010592 -0.019626)
 23:    422.26   0.000030    0.15  0.000022  ( 0.001919 -0.004114 -0.001365)
 24:    465.83   0.001872    9.46  0.001254  (-0.013432  0.025312 -0.020814)
 25:    491.03   0.000179    0.91  0.000114  ( 0.004674 -0.004558 -0.008444)
 26:    510.84   0.000044    0.22  0.000027  (-0.003951 -0.001293  0.003081)
 27:    522.48   0.001070    5.41  0.000639  ( 0.000646  0.024923 -0.004160)
 28:    525.74   0.000977    4.94  0.000580  (-0.023592 -0.002051 -0.004357)
 29:    562.78   0.001196    6.04  0.000663  ( 0.013848  0.012808  0.017532)
 30:    584.63   0.000325    1.64  0.000174  (-0.009381  0.000434  0.009245)
 31:    606.37   0.001797    9.08  0.000925  (-0.024921 -0.000212  0.017434)
 32:    625.05   0.002259   11.42  0.001128  (-0.029340 -0.015422  0.005415)
 33:    661.07   0.001270    6.42  0.000599  ( 0.015370  0.005023  0.018382)
 34:    703.26   0.000658    3.33  0.000292  (-0.014691  0.002946  0.008218)
 35:    732.19   0.000674    3.41  0.000287  (-0.008246  0.003566 -0.014376)
 36:    743.33   0.012649   63.92  0.005310  (-0.044312 -0.057770  0.003062)
 37:    746.37   0.017282   87.34  0.007226  ( 0.032705 -0.050328  0.060194)
 38:    776.49   0.004352   21.99  0.001749  ( 0.006603 -0.019564  0.036369)
 39:    804.48   0.000309    1.56  0.000120  ( 0.001453  0.010370 -0.003181)
 40:    828.10   0.002386   12.06  0.000899  ( 0.024473 -0.002532  0.017135)
 41:    837.83   0.005270   26.63  0.001963  (-0.024151  0.001000  0.037131)
 42:    864.32   0.014667   74.12  0.005295  ( 0.010886 -0.055257  0.046082)
 43:    871.31   0.000594    3.00  0.000213  ( 0.010139  0.007948  0.006840)
 44:    883.85   0.007601   38.41  0.002684  ( 0.012334 -0.045167  0.022169)
 45:    926.93   0.000572    2.89  0.000193  (-0.007682  0.009470  0.006628)
 46:    971.05   0.000062    0.31  0.000020  ( 0.000115  0.003025 -0.003278)
 47:    976.59   0.000207    1.05  0.000066  ( 0.001412 -0.005984  0.005330)
 48:    984.11   0.000044    0.22  0.000014  ( 0.000273  0.002056 -0.003104)
 49:    991.31   0.005604   28.32  0.001764  (-0.023120 -0.003569  0.034883)
 50:   1004.28   0.000293    1.48  0.000091  ( 0.000907 -0.007036  0.006378)
 51:   1032.05   0.011256   56.88  0.003403  ( 0.047148 -0.034356 -0.000431)
 52:   1046.59   0.005454   27.56  0.001626  ( 0.013448 -0.037979 -0.001742)
 53:   1075.64   0.003626   18.33  0.001052  (-0.002544  0.029167 -0.013960)
 54:   1083.84   0.001600    8.09  0.000461  ( 0.006455 -0.017345 -0.010875)
 55:   1109.98   0.000616    3.11  0.000173  (-0.013137 -0.000051 -0.000834)
 56:   1125.52   0.000620    3.13  0.000172  ( 0.003938  0.005215 -0.011368)
 57:   1148.06   0.006422   32.46  0.001746  (-0.007779 -0.035807 -0.020076)
 58:   1161.28   0.130366  658.82  0.035032  (-0.088756  0.134452  0.095276)
 59:   1172.70   0.000889    4.49  0.000237  ( 0.012170 -0.009092  0.002411)
 60:   1178.15   0.062886  317.80  0.016657  (-0.065559  0.099867  0.048843)
 61:   1187.52   0.004055   20.49  0.001066  ( 0.016927 -0.027022 -0.006994)
 62:   1218.08   0.006252   31.60  0.001602  ( 0.013541 -0.032120 -0.019665)
 63:   1224.18   0.007456   37.68  0.001901  ( 0.022523 -0.033100 -0.017253)
 64:   1255.46   0.030141  152.32  0.007492  (-0.051178  0.064355  0.027043)
 65:   1271.27   0.003058   15.46  0.000751  (-0.004311  0.026773  0.003923)
 66:   1278.01   0.001766    8.93  0.000431  (-0.013274 -0.003006  0.015687)
 67:   1322.85   0.002191   11.07  0.000517  ( 0.016806 -0.012647 -0.008628)
 68:   1341.30   0.006415   32.42  0.001492  ( 0.022017 -0.024850 -0.019754)
 69:   1354.04   0.002365   11.95  0.000545  (-0.015246  0.013389  0.011546)
 70:   1409.18   0.043286  218.75  0.009586  (-0.022845  0.077782  0.054897)
 71:   1414.65   0.022897  115.71  0.005051  (-0.055471  0.039764  0.019821)
 72:   1437.72   0.002714   13.71  0.000589  (-0.006369 -0.007749  0.022100)
 73:   1452.19   0.005228   26.42  0.001123  ( 0.001043  0.030236  0.014425)
 74:   1456.75   0.005306   26.81  0.001137  (-0.000075  0.027929  0.018884)
 75:   1462.78   0.007297   36.88  0.001557  (-0.009414  0.029588 -0.024344)
 76:   1476.12   0.004238   21.42  0.000896  ( 0.026532 -0.000307 -0.013854)
 77:   1479.51   0.000682    3.45  0.000144  ( 0.006822  0.001593  0.009740)
 78:   1486.68   0.006715   33.94  0.001410  (-0.026790 -0.004032 -0.025993)
 79:   1491.80   0.002605   13.17  0.000545  ( 0.000032  0.022129 -0.007434)
 80:   1522.87   0.016922   85.51  0.003468  ( 0.023863 -0.053720 -0.003499)
 81:   1532.07   0.002574   13.01  0.000524  (-0.003560 -0.020328 -0.009921)
 82:   1545.35   0.007346   37.13  0.001484  (-0.023708  0.024577  0.017816)
 83:   1598.10   0.007674   38.78  0.001499  ( 0.037822 -0.004269 -0.007059)
 84:   1630.72   0.011081   56.00  0.002120  (-0.008994 -0.032345 -0.031518)
 85:   1644.54   0.001073    5.42  0.000204  (-0.007307 -0.007371 -0.009790)
 86:   1659.77   0.003693   18.67  0.000694  ( 0.025395  0.007038  0.000105)
 87:   1705.79   0.189112  955.69  0.034597  ( 0.054264  0.018006 -0.176997)
 88:   3022.50   0.007821   39.53  0.000808  ( 0.005036  0.023874 -0.014568)
 89:   3026.48   0.021711  109.72  0.002239  (-0.038046  0.014661  0.024005)
 90:   3078.92   0.008950   45.23  0.000907  ( 0.020194  0.015582  0.016018)
 91:   3089.54   0.005128   25.91  0.000518  (-0.011489 -0.010898 -0.016346)
 92:   3149.20   0.006624   33.48  0.000656  ( 0.003006 -0.017315 -0.018643)
 93:   3169.64   0.000927    4.68  0.000091  ( 0.001338  0.005815 -0.007461)
 94:   3172.75   0.001681    8.50  0.000165  ( 0.008136 -0.009925  0.000817)
 95:   3173.08   0.000039    0.20  0.000004  ( 0.001657 -0.000745 -0.000709)
 96:   3178.76   0.001470    7.43  0.000144  ( 0.011167 -0.002377 -0.003738)
 97:   3179.90   0.000044    0.22  0.000004  (-0.001644 -0.000755 -0.001011)
 98:   3189.22   0.003036   15.34  0.000297  ( 0.014913 -0.005053 -0.007010)
 99:   3192.38   0.004620   23.35  0.000452  (-0.004395  0.014279  0.015114)
100:   3203.20   0.004027   20.35  0.000392  (-0.012962 -0.010999 -0.010167)
101:   3203.48   0.000860    4.35  0.000084  ( 0.007412  0.004221  0.003319)

* The epsilon (eps) is given for a Dirac delta lineshape.
** The dipole moment derivative (T) already includes vibrational overlap.

The first frequency considered to be a vibration is 6
The total number of vibrations considered is 96


--------------------------
THERMOCHEMISTRY AT 298.15K
--------------------------

Temperature         ... 298.15 K
Pressure            ... 1.00 atm
Total Mass          ... 266.30 AMU

Throughout the following assumptions are being made:
  (1) The electronic state is orbitally nondegenerate
  (2) There are no thermally accessible electronically excited states
  (3) Hindered rotations indicated by low frequency modes are not
      treated as such but are treated as vibrations and this may
      cause some error
  (4) All equations used are the standard statistical mechanics
      equations for an ideal gas
  (5) All vibrations are strictly harmonic

freq.      34.39  E(vib)   ...       0.54 
freq.      37.81  E(vib)   ...       0.54 
freq.      48.59  E(vib)   ...       0.53 
freq.      63.40  E(vib)   ...       0.51 
freq.      93.22  E(vib)   ...       0.47 
freq.      99.88  E(vib)   ...       0.46 
freq.     112.98  E(vib)   ...       0.45 
freq.     126.95  E(vib)   ...       0.43 
freq.     204.04  E(vib)   ...       0.35 
freq.     216.87  E(vib)   ...       0.34 
freq.     228.73  E(vib)   ...       0.32 
freq.     232.99  E(vib)   ...       0.32 
freq.     241.27  E(vib)   ...       0.31 
freq.     296.99  E(vib)   ...       0.27 
freq.     365.74  E(vib)   ...       0.22 
freq.     380.02  E(vib)   ...       0.21 
freq.     410.58  E(vib)   ...       0.19 
freq.     422.26  E(vib)   ...       0.18 
freq.     465.83  E(vib)   ...       0.16 
freq.     491.03  E(vib)   ...       0.14 
freq.     510.84  E(vib)   ...       0.14 
freq.     522.48  E(vib)   ...       0.13 
freq.     525.74  E(vib)   ...       0.13 
freq.     562.78  E(vib)   ...       0.11 
freq.     584.63  E(vib)   ...       0.11 
freq.     606.37  E(vib)   ...       0.10 
freq.     625.05  E(vib)   ...       0.09 
freq.     661.07  E(vib)   ...       0.08 
freq.     703.26  E(vib)   ...       0.07 
freq.     732.19  E(vib)   ...       0.06 
freq.     743.33  E(vib)   ...       0.06 
freq.     746.37  E(vib)   ...       0.06 
freq.     776.49  E(vib)   ...       0.05 
freq.     804.48  E(vib)   ...       0.05 
freq.     828.10  E(vib)   ...       0.04 
freq.     837.83  E(vib)   ...       0.04 
freq.     864.32  E(vib)   ...       0.04 
freq.     871.31  E(vib)   ...       0.04 
freq.     883.85  E(vib)   ...       0.04 
freq.     926.93  E(vib)   ...       0.03 
freq.     971.05  E(vib)   ...       0.03 
freq.     976.59  E(vib)   ...       0.03 
freq.     984.11  E(vib)   ...       0.02 
freq.     991.31  E(vib)   ...       0.02 
freq.    1004.28  E(vib)   ...       0.02 
freq.    1032.05  E(vib)   ...       0.02 
freq.    1046.59  E(vib)   ...       0.02 
freq.    1075.64  E(vib)   ...       0.02 
freq.    1083.84  E(vib)   ...       0.02 
freq.    1109.98  E(vib)   ...       0.02 
freq.    1125.52  E(vib)   ...       0.01 
freq.    1148.06  E(vib)   ...       0.01 
freq.    1161.28  E(vib)   ...       0.01 
freq.    1172.70  E(vib)   ...       0.01 
freq.    1178.15  E(vib)   ...       0.01 
freq.    1187.52  E(vib)   ...       0.01 
freq.    1218.08  E(vib)   ...       0.01 
freq.    1224.18  E(vib)   ...       0.01 
freq.    1255.46  E(vib)   ...       0.01 
freq.    1271.27  E(vib)   ...       0.01 
freq.    1278.01  E(vib)   ...       0.01 
freq.    1322.85  E(vib)   ...       0.01 
freq.    1341.30  E(vib)   ...       0.01 
freq.    1354.04  E(vib)   ...       0.01 
freq.    1409.18  E(vib)   ...       0.00 
freq.    1414.65  E(vib)   ...       0.00 
freq.    1437.72  E(vib)   ...       0.00 
freq.    1452.19  E(vib)   ...       0.00 
freq.    1456.75  E(vib)   ...       0.00 
freq.    1462.78  E(vib)   ...       0.00 
freq.    1476.12  E(vib)   ...       0.00 
freq.    1479.51  E(vib)   ...       0.00 
freq.    1486.68  E(vib)   ...       0.00 
freq.    1491.80  E(vib)   ...       0.00 
freq.    1522.87  E(vib)   ...       0.00 
freq.    1532.07  E(vib)   ...       0.00 
freq.    1545.35  E(vib)   ...       0.00 
freq.    1598.10  E(vib)   ...       0.00 
freq.    1630.72  E(vib)   ...       0.00 
freq.    1644.54  E(vib)   ...       0.00 
freq.    1659.77  E(vib)   ...       0.00 
freq.    1705.79  E(vib)   ...       0.00 
freq.    3022.50  E(vib)   ...       0.00 
freq.    3026.48  E(vib)   ...       0.00 
freq.    3078.92  E(vib)   ...       0.00 
freq.    3089.54  E(vib)   ...       0.00 
freq.    3149.20  E(vib)   ...       0.00 
freq.    3169.64  E(vib)   ...       0.00 
freq.    3172.75  E(vib)   ...       0.00 
freq.    3173.08  E(vib)   ...       0.00 
freq.    3178.76  E(vib)   ...       0.00 
freq.    3179.90  E(vib)   ...       0.00 
freq.    3189.22  E(vib)   ...       0.00 
freq.    3192.38  E(vib)   ...       0.00 
freq.    3203.20  E(vib)   ...       0.00 
freq.    3203.48  E(vib)   ...       0.00 

------------
INNER ENERGY
------------

The inner energy is: U= E(el) + E(ZPE) + E(vib) + E(rot) + E(trans)
    E(el)   - is the total energy from the electronic structure calculation
              = E(kin-el) + E(nuc-el) + E(el-el) + E(nuc-nuc)
    E(ZPE)  - the the zero temperature vibrational energy from the frequency calculation
    E(vib)  - the the finite temperature correction to E(ZPE) due to population
              of excited vibrational states
    E(rot)  - is the rotational thermal energy
    E(trans)- is the translational thermal energy

Summary of contributions to the inner energy U:
Electronic energy                ...   -878.44036555 Eh
Zero point energy                ...      0.26846040 Eh     168.46 kcal/mol
Thermal vibrational correction   ...      0.01401595 Eh       8.80 kcal/mol
Thermal rotational correction    ...      0.00141627 Eh       0.89 kcal/mol
Thermal translational correction ...      0.00141627 Eh       0.89 kcal/mol
-----------------------------------------------------------------------
Total thermal energy                   -878.15505665 Eh


Summary of corrections to the electronic energy:
(perhaps to be used in another calculation)
Total thermal correction                  0.01684850 Eh      10.57 kcal/mol
Non-thermal (ZPE) correction              0.26846040 Eh     168.46 kcal/mol
-----------------------------------------------------------------------
Total correction                          0.28530890 Eh     179.03 kcal/mol


--------
ENTHALPY
--------

The enthalpy is H = U + kB*T
                kB is Boltzmann's constant
Total free energy                 ...   -878.15505665 Eh 
Thermal Enthalpy correction       ...      0.00094421 Eh       0.59 kcal/mol
-----------------------------------------------------------------------
Total Enthalpy                    ...   -878.15411244 Eh


Note: Only C1 symmetry has been detected, increase convergence thresholds 
      if your molecule has a higher symmetry. Symmetry factor of 1.0 is   
      used for the rotational entropy correction. 
 

Note: Rotational entropy computed according to Herzberg 
Infrared and Raman Spectra, Chapter V,1, Van Nostrand Reinhold, 1945 
Point Group:  C1, Symmetry Number:   1  
Rotational constants in cm-1:     0.016254     0.010871     0.007094 

Vibrational entropy computed according to the QRRHO of S. Grimme
Chem.Eur.J. 2012 18 9955


-------
ENTROPY
-------

The entropy contributions are T*S = T*(S(el)+S(vib)+S(rot)+S(trans))
     S(el)   - electronic entropy
     S(vib)  - vibrational entropy
     S(rot)  - rotational entropy
     S(trans)- translational entropy
The entropies will be listed as multiplied by the temperature to get
units of energy

Electronic entropy                ...      0.00000000 Eh      0.00 kcal/mol
Vibrational entropy               ...      0.02458307 Eh     15.43 kcal/mol
Rotational entropy                ...      0.01592627 Eh      9.99 kcal/mol
Translational entropy             ...      0.02025841 Eh     12.71 kcal/mol
-----------------------------------------------------------------------
Final entropy term                ...      0.06076776 Eh     38.13 kcal/mol

In case the symmetry of your molecule has not been determined correctly
or in case you have a reason to use a different symmetry number we print 
out the resulting rotational entropy values for sn=1,12 :
 --------------------------------------------------------
|  sn= 1 | S(rot)=       0.01592627 Eh      9.99 kcal/mol|
|  sn= 2 | S(rot)=       0.01527182 Eh      9.58 kcal/mol|
|  sn= 3 | S(rot)=       0.01488899 Eh      9.34 kcal/mol|
|  sn= 4 | S(rot)=       0.01461736 Eh      9.17 kcal/mol|
|  sn= 5 | S(rot)=       0.01440667 Eh      9.04 kcal/mol|
|  sn= 6 | S(rot)=       0.01423453 Eh      8.93 kcal/mol|
|  sn= 7 | S(rot)=       0.01408898 Eh      8.84 kcal/mol|
|  sn= 8 | S(rot)=       0.01396291 Eh      8.76 kcal/mol|
|  sn= 9 | S(rot)=       0.01385170 Eh      8.69 kcal/mol|
|  sn=10 | S(rot)=       0.01375222 Eh      8.63 kcal/mol|
|  sn=11 | S(rot)=       0.01366223 Eh      8.57 kcal/mol|
|  sn=12 | S(rot)=       0.01358007 Eh      8.52 kcal/mol|
 --------------------------------------------------------


-------------------
GIBBS FREE ENERGY
-------------------

The Gibbs free energy is G = H - T*S

Total enthalpy                    ...   -878.15411244 Eh 
Total entropy correction          ...     -0.06076776 Eh    -38.13 kcal/mol
-----------------------------------------------------------------------
Final Gibbs free energy         ...   -878.21488020 Eh

For completeness - the Gibbs free energy minus the electronic energy
G-E(el)                           ...      0.22548535 Eh    141.49 kcal/mol


Timings for individual modules:

Sum of individual times         ...     8420.295 sec (= 140.338 min)
GTO integral calculation        ...       18.224 sec (=   0.304 min)   0.2 %
SCF iterations                  ...     2418.251 sec (=  40.304 min)  28.7 %
SCF Gradient evaluation         ...      924.156 sec (=  15.403 min)  11.0 %
Geometry relaxation             ...        0.746 sec (=   0.012 min)   0.0 %
Analytical frequency calculation...     5058.919 sec (=  84.315 min)  60.1 %
                             ****ORCA TERMINATED NORMALLY****
TOTAL RUN TIME: 0 days 2 hours 20 minutes 22 seconds 481 msec
