
                                 *****************
                                 * O   R   C   A *
                                 *****************

                                            #,                                       
                                            ###                                      
                                            ####                                     
                                            #####                                    
                                            ######                                   
                                           ########,                                 
                                     ,,################,,,,,                         
                               ,,#################################,,                 
                          ,,##########################################,,             
                       ,#########################################, ''#####,          
                    ,#############################################,,   '####,        
                  ,##################################################,,,,####,       
                ,###########''''           ''''###############################       
              ,#####''   ,,,,##########,,,,          '''####'''          '####       
            ,##' ,,,,###########################,,,                        '##       
           ' ,,###''''                  '''############,,,                           
         ,,##''                                '''############,,,,        ,,,,,,###''
      ,#''                                            '''#######################'''  
     '                                                          ''''####''''         
             ,#######,   #######,   ,#######,      ##                                
            ,#'     '#,  ##    ##  ,#'     '#,    #''#        ,####,   ,####,        
            ##       ##  ##   ,#'  ##            #'  '#       #'       #'  '#        
            ##       ##  #######   ##           ,######,      #####,   #    #        
            '#,     ,#'  ##    ##  '#,     ,#' ,#      #,     #,   #   #,  ,#        
             '#######'   ##     ##  '#######'  #'      '#     '####' # '####'        



                #########################################################
                #                        -***-                          #
                #          Department of theory and spectroscopy        #
                #                                                       #
                #                      Frank Neese                      #
                #                                                       #
                #     Directorship, Architecture, Infrastructure        #
                #                    SHARK, DRIVERS                     #
                #        Core code/Algorithms in most modules           #
                #                                                       #
                #        Max Planck Institute fuer Kohlenforschung      #
                #                Kaiser Wilhelm Platz 1                 #
                #                 D-45470 Muelheim/Ruhr                 #
                #                      Germany                          #
                #                                                       #
                #                  All rights reserved                  #
                #                        -***-                          #
                #########################################################


                         Program Version 6.0.1  -  RELEASE   -


 With contributions from (in alphabetic order):
[Max-Planck-Institut fuer Kohlenforschung]                               
  Daniel Aravena         : Magnetic Suceptibility                        
  Michael Atanasov       : Ab Initio Ligand Field Theory (pilot matlab implementation)
  Alexander A. Auer      : GIAO ZORA, VPT2 properties, NMR spectrum      
  Ute Becker             : All parallelization in ORCA, NUMFREQ, NUMCALC 
  Giovanni Bistoni       : ED, misc. LED, open-shell LED, HFLD           
  Martin Brehm           : Molecular dynamics                            
  Dmytro Bykov           : pre 5.0 version of the SCF Hessian            
  Marcos Casanova-Páez   : Triplet and SCS-CIS(D). UHF-(DLPNO)-IP/EA/STEOM-CCSD. UHF-CVS-IP/STEOM-CCSD   
  Vijay G. Chilkuri      : MRCI spin determinant printing, contributions to CSF-ICE 
  Pauline Colinet        : FMM embedding                                 
  Dipayan Datta          : RHF DLPNO-CCSD density                        
  Achintya Kumar Dutta   : EOM-CC, STEOM-CC                              
  Nicolas Foglia         : Exact transition moments, OPA infrastructure, MCD improvements    
  Dmitry Ganyushin       : Spin-Orbit,Spin-Spin,Magnetic field MRCI      
  Miquel Garcia-Rates    : C-PCM and meta-GGA Hessian, CCSD/C-PCM, Gaussian charge scheme 
  Tiago L. C. Gouveia    : GS-ROHF, GS-ROCIS                             
  Yang Guo               : DLPNO-NEVPT2, F12-NEVPT2, CIM, IAO-localization        
  Andreas Hansen         : Spin unrestricted coupled pair/coupled cluster methods 
  Ingolf Harden          : AUTO-CI MPn and infrastructure                
  Benjamin Helmich-Paris : MC-RPA, TRAH-(SCF,CASSCF), AVAS, COSX integrals, SCF dyn. polar. 
  Lee Huntington         : MR-EOM, pCC                                   
  Robert Izsak           : Overlap fitted RIJCOSX, COSX-SCS-MP3, EOM     
  Riya Kayal             : Wick's Theorem for AUTO-CI, AUTO-CI UHF-CCSDT 
  Emily Kempfer          : AUTO-CI, RHF CISDT and CCSDT                  
  Christian Kollmar      : KDIIS, OOCD, Brueckner-CCSD(T), CCSD density, CASPT2, CASPT2-K, improved NEVPT2 
  Axel Koslowski         : Symmetry handling                             
  Simone Kossmann        : meta-GGA functionals, TD-DFT gradient, OOMP2, (MP2 Hessian; deprecated post 5.0) 
  Lucas Lang             : DCDCAS                                        
  Marvin Lechner         : AUTO-CI (C++ implementation), FIC-MRCC        
  Spencer Leger          : CASSCF response                               
  Dagmar Lenk            : GEPOL surface, SMD, ORCA-2-JSON               
  Dimitrios Liakos       : Extrapolation schemes; Compound Job, initial MDCI parallelization 
  Dimitrios Manganas     : Further ROCIS development; embedding schemes. LFT, Crystal Embedding 
  Dimitrios Pantazis     : SARC Basis sets                               
  Anastasios Papadopoulos: AUTO-CI, single reference methods and gradients 
  Taras Petrenko         : pre 6.0 DFT Hessian and TD-DFT gradient, (ASA, deprecated), ECA, 1-Electron XAS/XES, NRVS 
  Peter Pinski           : DLPNO-MP2, DLPNO-MP2 Gradient                 
  Christoph Reimann      : Effective Core Potentials                     
  Marius Retegan         : Local ZFS, SOC                                
  Christoph Riplinger    : Optimizer, TS searches, QM/MM, DLPNO-CCSD(T), (RO)-DLPNO pert. Triples 
  Michael Roemelt        : Original ROCIS implementation                 
  Masaaki Saitow         : Open-shell DLPNO-CCSD energy and density      
  Barbara Sandhoefer     : DKH picture change effects                    
  Kantharuban Sivalingam : CASSCF convergence/infrastructure, NEVPT2 and variants, FIC-MRCI 
  Bernardo de Souza      : ESD, SOC TD-DFT                               
  Georgi L. Stoychev     : AutoAux, RI-MP2 NMR, DLPNO-MP2 response, X2C  
  Van Anh Tran           : RI-MP2 g-tensors                              
  Willem Van den Heuvel  : Paramagnetic NMR                              
  Zikuan Wang            : NOTCH, Electric field optimization            
  Frank Wennmohs         : Technical directorship and infrastructure     
  Hang Xu                : AUTO-CI-Response properties                   
                                                                         
[FACCTs GmbH]                                                            
  Markus Bursch, Miquel Garcia-Rates, Christoph Riplinger, Bernardo de Souza, Georgi L. Stoychev 
                                                                 
  APM, Basis sets (HGBS, AHGBS, def-TZVP (Ac-Lr), def2-XVPD (La-Lu)), CI-OPT, improved COSX, DLPNO-Multilevel,           
  DOCKER, DRACO, updates on ESD, GOAT, IRC, LR-CPCM, MBIS, meta-GGA TD-DFT gradient, ML-optimized integration grids, 
  MM, NACMEs, nearIR, NEB, NEB-TS, NL-DFT gradient (VV10), 2- and 3-layer-ONIOM, interface openCOSMO-RS, QMMM,   
  Crystal-QMMM, SF, symmetry and pop. for TD-DFT, r2SCAN hybrids, SOLVATOR                                   
                                                                         
[Other institutions]                                                     
  V. Asgeirsson          : NEB                                           
  Christoph Bannwarth    : sTDA-DFT, sTD-DFT, PBEh-3c, B97-3c, D3        
  Sebastian Ehlert       : rSCAN, r2SCAN, r2SCAN-3c, D4, dhf basis sets  
  Marvin Friede          : D4 for Fr, Ra, Ac-Lr                          
  Lars Goerigk           : TD-DFT with DH, B97 family of functionals     
  Stefan Grimme          : VdW corrections, initial TS optimization, DFT functionals, gCP, sTDA/sTD-DF 
  Waldemar Hujo          : DFT-NL                                        
  H. Jonsson             : NEB                                           
  Holger Kruse           : gCP                                           
  Marcel Mueller         : wB97X-3c, vDZP basis set                      
  Hagen Neugebauer       : wr2SCAN                                       
  Tobias Risthaus        : range-separated hybrid DFT                    
  Lukas Wittmann         : regularized MP2, r2SCAN double-hybrids, wr2SCAN        
                                                                         
We gratefully acknowledge several colleagues who have allowed us to      
interface, adapt or use parts of their codes:                            
  Ed Valeev, F. Pavosevic, A. Kumar             : LibInt (2-el integral package), F12 methods 
  Garnet Chan, S. Sharma, J. Yang, R. Olivares  : DMRG                   
  Ulf Ekstrom                                   : XCFun DFT Library      
  Mihaly Kallay                                 : mrcc  (arbitrary order and MRCC methods)
  Frank Weinhold                                : gennbo (NPA and NBO analysis)           
  Simon Mueller                                 : openCOSMO-RS                            
  Christopher J. Cramer and Donald G. Truhlar   : smd solvation model                     
  S Lehtola, MJT Oliveira, MAL Marques          : LibXC Library                           
  Liviu Ungur et al                             : ANISO software                          


 Your calculation uses the libint2 library for the computation of 2-el integrals
 For citations please refer to: http://libint.valeyev.net

 Your ORCA version has been built with support for libXC version: 6.2.2
 For citations please refer to: https://libxc.gitlab.io

 This ORCA versions uses:
   CBLAS   interface :  Fast vector & matrix operations
   LAPACKE interface :  Fast linear algebra routines
   SCALAPACK package :  Parallel linear algebra routines
   Shared memory     :  Shared parallel matrices
   BLAS/LAPACK       :  OpenBLAS 0.3.27  USE64BITINT DYNAMIC_ARCH NO_AFFINITY Zen SINGLE_THREADED
        Core in use  :  Zen
   Copyright (c) 2011-2014, The OpenBLAS Project


Your calculation utilizes the semiempirical GFN2-xTB method
Please cite in your paper:
C. Bannwarth, Ehlert S., S. Grimme,  J. Chem. Theory Comput., 15, (2019), 1652.
   

================================================================================

================================================================================
                                        WARNINGS
                       Please study these warnings very carefully!
================================================================================


WARNING: Geometry Optimization
  ===> : Switching off AutoStart
         For restart on a previous wavefunction, please use MOREAD

WARNING: Found dipole moment calculation with XTB calculation
  ===> : Switching off dipole moment calculation


================================================================================
                                       INPUT FILE
================================================================================
NAME = HBQ_GS-GOAT.inp
|  1> !XTB goat ddCOSMO(water)
|  2> 
|  3> * xyz 0 1 
|  4>   C   -3.29503104994019     -0.64462679992355     -0.62111652530007
|  5>   C   -2.79237472177815     -1.50068060951883     -1.60577727032567
|  6>   C   -1.43862095366715     -1.54247959835514     -1.83687828516427
|  7>   C   -2.45061618500934      0.15926339399341      0.11238788500657
|  8>   C   -1.04680532610905      0.15377522126596     -0.09029226345631
|  9>   O   -3.05622508478166      0.89231285329717      1.12820467078653
| 10>   C   -0.55504022013217     -0.73425178029305     -1.09475134937336
| 11>   C   0.85062781844231     -0.82018276258933     -1.35567818451792
| 12>   C   1.74374538881924     -0.07639820432441     -0.66465380920866
| 13>   C   -0.08331853788085      0.96449981528363      0.64184259383543
| 14>   C   1.30147762335617      0.83076289397448      0.34549521698967
| 15>   N   -0.51016293495800      1.83471722596518      1.58479684567330
| 16>   C   0.37669222165832      2.56074422451946      2.24205163462549
| 17>   C   1.75888783008372      2.49053929276249      2.02433634308264
| 18>   C   2.21635062825543      1.61844970031873      1.06701442833394
| 19>   C   -3.31500774522881      2.21857517253875      0.89646748374945
| 20>   O   -3.12148026827977      2.74382400916265     -0.18934397774336
| 21>   N   -3.81830788776568      2.82593247405035      1.98833744525102
| 22>   C   -4.10100331070348      2.13684224501750      3.24276449714838
| 23>   C   -4.30301904578004      4.19601436085567      1.88603490415782
| 24>   H   -4.00299408735696      4.61832968188490      0.93312585609252
| 25>   H   -3.88203560855312      4.79374311348616      2.69625124212385
| 26>   H   -5.39352894296766      4.22330156082644      1.96463713149768
| 27>   H   -3.46411332678318      1.26669947738301      3.35324077039836
| 28>   H   -5.14830812376476      1.82467462542653      3.29281532448293
| 29>   H   -3.90587207206067      2.82352888729878      4.06682448182409
| 30>   H   -1.02760730440550     -2.20188947486929     -2.59094928809906
| 31>   H   -4.35603997609009     -0.60121385762428     -0.41346436515040
| 32>   H   -3.46994827584634     -2.12397898021595     -2.17462943024135
| 33>   H   1.18183432471646     -1.50580128867441     -2.12585633980196
| 34>   H   2.80569579100891     -0.15047460264524     -0.86549674162256
| 35>   H   -0.01855386365011      3.24462873312166      2.98680055703308
| 36>   H   2.43427901880762      3.11221699829295      2.59660253336206
| 37>   H   3.27457420834492      1.52644199830734      0.85323598454994
| 38> *
| 39> 
| 40>                          ****END OF INPUT****
================================================================================

                       *****************************
                       * Geometry Optimization Run *
                       *****************************


                       *********************************
                       *              GOAT             *
                       * Global Optimization Algorithm *
                       *********************************

Geometry optimization settings:
Update method            Update   .... BFGS
Choice of coordinates    CoordSys .... (2022) Redundant Internals
Initial Hessian          InHess   .... Almloef's Model
Max. no of cycles        MaxIter  .... 102

Convergence Tolerances:
Energy Change            TolE     ....  5.0000e-06 Eh
Max. Gradient            TolMAXG  ....  3.0000e-04 Eh/bohr
RMS Gradient             TolRMSG  ....  1.0000e-04 Eh/bohr
Max. Displacement        TolMAXD  ....  4.0000e-03 bohr
RMS Displacement         TolRMSD  ....  2.0000e-03 bohr
Strict Convergence                .... True

------------------------------------------------------------------------------
                        ORCA OPTIMIZATION COORDINATE SETUP
------------------------------------------------------------------------------

The optimization will be done in redundant internal coordinates (2022)
Making redundant internal coordinates   ...  (2022 redundants) done
Evaluating the initial hessian          ...  (Almloef) done
Evaluating the coordinates              ...  done
Calculating the B-matrix                .... done
Calculating the G-matrix                .... done
Diagonalizing the G-matrix              .... done
Small eigenvalue found = 3.723e-03
Small eigenvalue found = 5.544e-03
Small eigenvalue found = 1.343e-02
Small eigenvalue found = 2.447e-02
The first mode is                       ....   77
The number of degrees of freedom        ....   96

    -----------------------------------------------------------------
                    Redundant Internal Coordinates


    -----------------------------------------------------------------
         Definition                    Initial Value    Approx d2E/dq
    -----------------------------------------------------------------
      1. B(C   1,C   0)                  1.3982         0.606188   
      2. B(C   2,C   1)                  1.3740         0.662685   
      3. B(C   3,C   0)                  1.3774         0.654332   
      4. B(C   4,C   3)                  1.4184         0.562943   
      5. B(O   5,C   3)                  1.3914         0.556717   
      6. B(C   6,C   4)                  1.4281         0.543265   
      7. B(C   6,C   2)                  1.4088         0.583115   
      8. B(C   7,C   6)                  1.4323         0.534952   
      9. B(C   8,C   7)                  1.3522         0.717925   
     10. B(C   9,C   4)                  1.4566         0.489245   
     11. B(C  10,C   9)                  1.4225         0.554580   
     12. B(C  10,C   8)                  1.4279         0.543559   
     13. B(N  11,C   9)                  1.3523         0.642791   
     14. B(C  12,N  11)                  1.3212         0.720471   
     15. B(C  13,C  12)                  1.4010         0.600058   
     16. B(C  14,C  13)                  1.3734         0.664039   
     17. B(C  14,C  10)                  1.4064         0.588210   
     18. B(C  15,O   5)                  1.3710         0.600051   
     19. B(O  16,C  15)                  1.2216         1.038806   
     20. B(N  17,C  15)                  1.3470         0.655390   
     21. B(C  18,N  17)                  1.4589         0.434482   
     22. B(C  19,N  17)                  1.4569         0.437676   
     23. B(H  20,C  19)                  1.0846         0.367288   
     24. B(H  21,C  19)                  1.0913         0.358371   
     25. B(H  22,C  19)                  1.0937         0.355265   
     26. B(H  23,C  18)                  1.0840         0.368171   
     27. B(H  24,C  18)                  1.0940         0.354868   
     28. B(H  25,C  18)                  1.0903         0.359742   
     29. B(H  26,C   2)                  1.0828         0.369801   
     30. B(H  27,C   0)                  1.0820         0.370827   
     31. B(H  28,C   1)                  1.0822         0.370541   
     32. B(H  29,C   7)                  1.0830         0.369445   
     33. B(H  30,C   8)                  1.0833         0.369058   
     34. B(H  31,C  12)                  1.0856         0.365942   
     35. B(H  32,C  13)                  1.0817         0.371217   
     36. B(H  33,C  14)                  1.0835         0.368782   
     37. A(C   1,C   0,C   3)          120.7931         0.436525   
     38. A(C   3,C   0,H  27)          118.3936         0.357929   
     39. A(C   1,C   0,H  27)          120.8126         0.353317   
     40. A(C   2,C   1,H  28)          120.7271         0.358655   
     41. A(C   0,C   1,C   2)          119.4247         0.437524   
     42. A(C   0,C   1,H  28)          119.8480         0.353271   
     43. A(C   1,C   2,H  26)          120.6423         0.358533   
     44. A(C   1,C   2,C   6)          120.7906         0.434476   
     45. A(C   6,C   2,H  26)          118.5664         0.350841   
     46. A(C   4,C   3,O   5)          122.4893         0.415769   
     47. A(C   0,C   3,C   4)          121.8967         0.430751   
     48. A(C   0,C   3,O   5)          115.4309         0.427087   
     49. A(C   3,C   4,C   9)          125.5000         0.408985   
     50. A(C   3,C   4,C   6)          116.3425         0.416661   
     51. A(C   6,C   4,C   9)          118.1561         0.406419   
     52. A(C   3,O   5,C  15)          117.9307         0.417797   
     53. A(C   4,C   6,C   7)          120.2260         0.412901   
     54. A(C   2,C   6,C   7)          119.0227         0.418132   
     55. A(C   2,C   6,C   4)          120.7502         0.419283   
     56. A(C   6,C   7,H  29)          117.8833         0.345726   
     57. A(C   6,C   7,C   8)          121.4756         0.433996   
     58. A(C   8,C   7,H  29)          120.6407         0.363402   
     59. A(C   7,C   8,H  30)          121.0054         0.363337   
     60. A(C  10,C   8,H  30)          118.5692         0.346594   
     61. A(C   7,C   8,C  10)          120.4249         0.435245   
     62. A(C   4,C   9,C  10)          119.1381         0.407903   
     63. A(C  10,C   9,N  11)          120.8687         0.425435   
     64. A(C   4,C   9,N  11)          119.9925         0.416024   
     65. A(C   9,C  10,C  14)          118.2773         0.421481   
     66. A(C   8,C  10,C  14)          121.1483         0.419974   
     67. A(C   8,C  10,C   9)          120.5735         0.415593   
     68. A(C   9,N  11,C  12)          119.2508         0.443027   
     69. A(N  11,C  12,H  31)          116.2986         0.360776   
     70. A(N  11,C  12,C  13)          123.8756         0.440449   
     71. A(C  13,C  12,H  31)          119.8256         0.351919   
     72. A(C  12,C  13,H  32)          120.3298         0.352772   
     73. A(C  12,C  13,C  14)          117.9533         0.436883   
     74. A(C  14,C  13,H  32)          121.7165         0.358891   
     75. A(C  10,C  14,H  33)          119.1131         0.351194   
     76. A(C  10,C  14,C  13)          119.7719         0.435317   
     77. A(C  13,C  14,H  33)          121.1148         0.358489   
     78. A(O  16,C  15,N  17)          125.8606         0.475290   
     79. A(O   5,C  15,N  17)          111.6972         0.430167   
     80. A(O   5,C  15,O  16)          122.4301         0.467654   
     81. A(C  18,N  17,C  19)          116.1105         0.378430   
     82. A(C  15,N  17,C  19)          119.4344         0.406652   
     83. A(C  15,N  17,C  18)          123.8088         0.406125   
     84. A(H  24,C  18,H  25)          108.4502         0.290127   
     85. A(H  23,C  18,H  25)          108.8687         0.291809   
     86. A(N  17,C  18,H  25)          108.5256         0.330444   
     87. A(H  23,C  18,H  24)          109.1936         0.291184   
     88. A(N  17,C  18,H  24)          111.0773         0.329700   
     89. A(N  17,C  18,H  23)          110.6677         0.331713   
     90. A(H  21,C  19,H  22)          108.5190         0.290004   
     91. A(H  20,C  19,H  22)          109.2229         0.291125   
     92. A(N  17,C  19,H  22)          110.4968         0.330160   
     93. A(H  20,C  19,H  21)          109.4083         0.291524   
     94. A(N  17,C  19,H  21)          109.5485         0.330636   
     95. A(N  17,C  19,H  20)          109.6229         0.331984   
     96. D(H  28,C   1,C   0,C   3)   -179.8567         0.025361   
     97. D(C   2,C   1,C   0,C   3)      0.3257         0.025361   
     98. D(H  28,C   1,C   0,H  27)      0.4521         0.025361   
     99. D(C   2,C   1,C   0,H  27)   -179.3655         0.025361   
    100. D(C   6,C   2,C   1,C   0)     -0.0166         0.030662   
    101. D(H  26,C   2,C   1,C   0)    179.6786         0.030662   
    102. D(C   6,C   2,C   1,H  28)   -179.8325         0.030662   
    103. D(H  26,C   2,C   1,H  28)     -0.1373         0.030662   
    104. D(O   5,C   3,C   0,C   1)   -175.4232         0.029839   
    105. D(C   4,C   3,C   0,H  27)    179.4714         0.029839   
    106. D(C   4,C   3,C   0,C   1)     -0.2271         0.029839   
    107. D(O   5,C   3,C   0,H  27)      4.2753         0.029839   
    108. D(C   6,C   4,C   3,O   5)    174.6848         0.021717   
    109. D(C   9,C   4,C   3,C   0)   -179.7331         0.021717   
    110. D(C   9,C   4,C   3,O   5)     -4.8774         0.021717   
    111. D(C   6,C   4,C   3,C   0)     -0.1709         0.021717   
    112. D(C  15,O   5,C   3,C   4)     83.4358         0.022442   
    113. D(C  15,O   5,C   3,C   0)   -101.3996         0.022442   
    114. D(C   7,C   6,C   4,C   9)      0.4446         0.020174   
    115. D(C   7,C   6,C   4,C   3)   -179.1511         0.020174   
    116. D(C   2,C   6,C   4,C   9)   -179.9296         0.020174   
    117. D(C   2,C   6,C   4,C   3)      0.4747         0.020174   
    118. D(C   7,C   6,C   2,H  26)     -0.4636         0.023373   
    119. D(C   7,C   6,C   2,C   1)    179.2379         0.023373   
    120. D(C   4,C   6,C   2,H  26)    179.9062         0.023373   
    121. D(C   4,C   6,C   2,C   1)     -0.3924         0.023373   
    122. D(H  29,C   7,C   6,C   4)   -179.9792         0.019543   
    123. D(H  29,C   7,C   6,C   2)      0.3886         0.019543   
    124. D(C   8,C   7,C   6,C   4)      0.2390         0.019543   
    125. D(C   8,C   7,C   6,C   2)   -179.3932         0.019543   
    126. D(C  10,C   8,C   7,C   6)     -0.5211         0.036460   
    127. D(H  30,C   8,C   7,H  29)     -0.0319         0.036460   
    128. D(H  30,C   8,C   7,C   6)    179.7439         0.036460   
    129. D(C  10,C   8,C   7,H  29)    179.7031         0.036460   
    130. D(N  11,C   9,C   4,C   6)    178.8572         0.016298   
    131. D(N  11,C   9,C   4,C   3)     -1.5878         0.016298   
    132. D(C  10,C   9,C   4,C   6)     -0.8358         0.016298   
    133. D(C  10,C   9,C   4,C   3)    178.7192         0.016298   
    134. D(C  14,C  10,C   9,N  11)      0.5585         0.021052   
    135. D(C  14,C  10,C   9,C   4)   -179.7513         0.021052   
    136. D(C   8,C  10,C   9,N  11)   -179.1097         0.021052   
    137. D(C   8,C  10,C   9,C   4)      0.5805         0.021052   
    138. D(C  14,C  10,C   8,H  30)      0.1869         0.020196   
    139. D(C  14,C  10,C   8,C   7)   -179.5546         0.020196   
    140. D(C   9,C  10,C   8,H  30)    179.8455         0.020196   
    141. D(C   9,C  10,C   8,C   7)      0.1040         0.020196   
    142. D(C  12,N  11,C   9,C  10)     -0.4571         0.030481   
    143. D(C  12,N  11,C   9,C   4)    179.8554         0.030481   
    144. D(H  31,C  12,N  11,C   9)    179.8968         0.039093   
    145. D(C  13,C  12,N  11,C   9)      0.0435         0.039093   
    146. D(H  32,C  13,C  12,H  31)      0.1794         0.024823   
    147. D(H  32,C  13,C  12,N  11)   -179.9721         0.024823   
    148. D(C  14,C  13,C  12,H  31)   -179.5888         0.024823   
    149. D(C  14,C  13,C  12,N  11)      0.2596         0.024823   
    150. D(H  33,C  14,C  13,H  32)     -0.0716         0.030797   
    151. D(H  33,C  14,C  13,C  12)    179.6933         0.030797   
    152. D(C  10,C  14,C  13,H  32)   -179.9045         0.030797   
    153. D(C  10,C  14,C  13,C  12)     -0.1397         0.030797   
    154. D(H  33,C  14,C  10,C   9)    179.9162         0.023803   
    155. D(H  33,C  14,C  10,C   8)     -0.4176         0.023803   
    156. D(C  13,C  14,C  10,C   9)     -0.2476         0.023803   
    157. D(C  13,C  14,C  10,C   8)    179.4187         0.023803   
    158. D(O  16,C  15,O   5,C   3)      5.3074         0.026298   
    159. D(N  17,C  15,O   5,C   3)   -175.8898         0.026298   
    160. D(C  19,N  17,C  15,O  16)      6.0207         0.035105   
    161. D(C  19,N  17,C  15,O   5)   -172.7324         0.035105   
    162. D(C  18,N  17,C  15,O  16)    176.4369         0.035105   
    163. D(C  18,N  17,C  15,O   5)     -2.3163         0.035105   
    164. D(H  25,C  18,N  17,C  15)    145.9808         0.016095   
    165. D(H  24,C  18,N  17,C  19)     75.8222         0.016095   
    166. D(H  24,C  18,N  17,C  15)    -94.8850         0.016095   
    167. D(H  23,C  18,N  17,C  19)   -162.7143         0.016095   
    168. D(H  23,C  18,N  17,C  15)     26.5785         0.016095   
    169. D(H  22,C  19,N  17,C  15)    109.3276         0.016334   
    170. D(H  21,C  19,N  17,C  18)     57.6987         0.016334   
    171. D(H  21,C  19,N  17,C  15)   -131.1635         0.016334   
    172. D(H  20,C  19,N  17,C  18)    177.7623         0.016334   
    173. D(H  20,C  19,N  17,C  15)    -11.0999         0.016334   
    -----------------------------------------------------------------

Number of atoms                         .... 34
Number of degrees of freedom            .... 173


         *************************************************************
         *                GEOMETRY OPTIMIZATION CYCLE   1            *
         *************************************************************
---------------------------------
CARTESIAN COORDINATES (ANGSTROEM)
---------------------------------
  C    -3.295031   -0.644627   -0.621117
  C    -2.792375   -1.500681   -1.605777
  C    -1.438621   -1.542480   -1.836878
  C    -2.450616    0.159263    0.112388
  C    -1.046805    0.153775   -0.090292
  O    -3.056225    0.892313    1.128205
  C    -0.555040   -0.734252   -1.094751
  C     0.850628   -0.820183   -1.355678
  C     1.743745   -0.076398   -0.664654
  C    -0.083319    0.964500    0.641843
  C     1.301478    0.830763    0.345495
  N    -0.510163    1.834717    1.584797
  C     0.376692    2.560744    2.242052
  C     1.758888    2.490539    2.024336
  C     2.216351    1.618450    1.067014
  C    -3.315008    2.218575    0.896467
  O    -3.121480    2.743824   -0.189344
  N    -3.818308    2.825932    1.988337
  C    -4.101003    2.136842    3.242764
  C    -4.303019    4.196014    1.886035
  H    -4.002994    4.618330    0.933126
  H    -3.882036    4.793743    2.696251
  H    -5.393529    4.223302    1.964637
  H    -3.464113    1.266699    3.353241
  H    -5.148308    1.824675    3.292815
  H    -3.905872    2.823529    4.066824
  H    -1.027607   -2.201889   -2.590949
  H    -4.356040   -0.601214   -0.413464
  H    -3.469948   -2.123979   -2.174629
  H     1.181834   -1.505801   -2.125856
  H     2.805696   -0.150475   -0.865497
  H    -0.018554    3.244629    2.986801
  H     2.434279    3.112217    2.596603
  H     3.274574    1.526442    0.853236

----------------------------
CARTESIAN COORDINATES (A.U.)
----------------------------
  NO LB    ZA    FRAG    MASS        X           Y           Z
   0 C   6.0000    1    12.011   -6.226706   -1.218168   -1.173740
   1 C   6.0000    1    12.011   -5.276823   -2.835875   -3.034479
   2 C   6.0000    1    12.011   -2.718600   -2.914864   -3.471197
   3 C   6.0000    1    12.011   -4.630993    0.300964    0.212382
   4 C   6.0000    1    12.011   -1.978175    0.290593   -0.170628
   5 O   8.0000    1    15.999   -5.775428    1.686227    2.131998
   6 C   6.0000    1    12.011   -1.048874   -1.387535   -2.068780
   7 C   6.0000    1    12.011    1.607454   -1.549921   -2.561860
   8 C   6.0000    1    12.011    3.295201   -0.144372   -1.256014
   9 C   6.0000    1    12.011   -0.157449    1.822641    1.212907
  10 C   6.0000    1    12.011    2.459436    1.569914    0.652891
  11 N   7.0000    1    14.007   -0.964068    3.467113    2.994832
  12 C   6.0000    1    12.011    0.711845    4.839105    4.236864
  13 C   6.0000    1    12.011    3.323816    4.706437    3.825441
  14 C   6.0000    1    12.011    4.188296    3.058427    2.016365
  15 C   6.0000    1    12.011   -6.264457    4.192499    1.694078
  16 O   8.0000    1    15.999   -5.898743    5.185076   -0.357808
  17 N   7.0000    1    14.007   -7.215556    5.340238    3.757413
  18 C   6.0000    1    12.011   -7.749773    4.038047    6.127937
  19 C   6.0000    1    12.011   -8.131528    7.929318    3.564089
  20 H   1.0000    1     1.008   -7.564563    8.727378    1.763352
  21 H   1.0000    1     1.008   -7.335984    9.058862    5.095176
  22 H   1.0000    1     1.008  -10.192293    7.980883    3.712626
  23 H   1.0000    1     1.008   -6.546225    2.393715    6.336707
  24 H   1.0000    1     1.008   -9.728892    3.448135    6.222519
  25 H   1.0000    1     1.008   -7.381029    5.335696    7.685185
  26 H   1.0000    1     1.008   -1.941896   -4.160968   -4.896185
  27 H   1.0000    1     1.008   -8.231723   -1.136130   -0.781334
  28 H   1.0000    1     1.008   -6.557252   -4.013739   -4.109454
  29 H   1.0000    1     1.008    2.233343   -2.845552   -4.017286
  30 H   1.0000    1     1.008    5.301997   -0.284356   -1.635552
  31 H   1.0000    1     1.008   -0.035062    6.131460    5.644235
  32 H   1.0000    1     1.008    4.600121    5.881238    4.906868
  33 H   1.0000    1     1.008    6.188048    2.884557    1.612382

      -----------------------------------------------------------      
     |                   =====================                   |     
     |                           x T B                           |     
     |                   =====================                   |     
     |                         S. Grimme                         |     
     |          Mulliken Center for Theoretical Chemistry        |     
     |                    University of Bonn                     |     
      -----------------------------------------------------------      

   * xtb version 6.7.1 (edcfbbe) compiled by 'albert@albert-system' on 2024-07-22

   xtb is free software: you can redistribute it and/or modify it under
   the terms of the GNU Lesser General Public License as published by
   the Free Software Foundation, either version 3 of the License, or
   (at your option) any later version.
   
   xtb is distributed in the hope that it will be useful,
   but WITHOUT ANY WARRANTY; without even the implied warranty of
   MERCHANTABILITY or FITNESS FOR A PARTICULAR PURPOSE.  See the
   GNU Lesser General Public License for more details.
   
   Cite this work as:
   * C. Bannwarth, E. Caldeweyher, S. Ehlert, A. Hansen, P. Pracht,
     J. Seibert, S. Spicher, S. Grimme, WIREs Comput. Mol. Sci., 2020, 11,
     e01493. DOI: 10.1002/wcms.1493
   
   for GFN2-xTB:
   * C. Bannwarth, S. Ehlert and S. Grimme., J. Chem. Theory Comput., 2019,
     15, 1652-1671. DOI: 10.1021/acs.jctc.8b01176
   for GFN1-xTB:
   * S. Grimme, C. Bannwarth, P. Shushkov, J. Chem. Theory Comput., 2017,
     13, 1989-2009. DOI: 10.1021/acs.jctc.7b00118
   for GFN0-xTB:
   * P. Pracht, E. Caldeweyher, S. Ehlert, S. Grimme, ChemRxiv, 2019, preprint.
     DOI: 10.26434/chemrxiv.8326202.v1
   for GFN-FF:
   * S. Spicher and S. Grimme, Angew. Chem. Int. Ed., 2020, 59, 15665-15673.
     DOI: 10.1002/anie.202004239
   
   for ALPB and GBSA implicit solvation:
   * S. Ehlert, M. Stahn, S. Spicher, S. Grimme, J. Chem. Theory Comput.,
     2021, 17, 4250-4261. DOI: 10.1021/acs.jctc.1c00471
   
   for ddCOSMO and CPCM-X implicit solvation:
   * M. Stahn, S. Ehlert, S. Grimme, J. Phys. Chem. A,
     2023, XX, XXXX-XXXX. DOI: 10.1021/acs.jpca.3c04382
   
   for DFT-D4:
   * E. Caldeweyher, C. Bannwarth and S. Grimme, J. Chem. Phys., 2017,
     147, 034112. DOI: 10.1063/1.4993215
   * E. Caldeweyher, S. Ehlert, A. Hansen, H. Neugebauer, S. Spicher,
     C. Bannwarth and S. Grimme, J. Chem. Phys., 2019, 150, 154122.
     DOI: 10.1063/1.5090222
   * E. Caldeweyher, J.-M. Mewes, S. Ehlert and S. Grimme, Phys. Chem. Chem. Phys.
     2020, 22, 8499-8512. DOI: 10.1039/D0CP00502A
   
   for sTDA-xTB:
   * S. Grimme and C. Bannwarth, J. Chem. Phys., 2016, 145, 054103.
     DOI: 10.1063/1.4959605
   
   in the mass-spec context:
   * V. Asgeirsson, C. Bauer and S. Grimme, Chem. Sci., 2017, 8, 4879.
     DOI: 10.1039/c7sc00601b
   * J. Koopman and S. Grimme, ACS Omega 2019, 4, 12, 15120-15133.
     DOI: 10.1021/acsomega.9b02011
   
   for metadynamics refer to:
   * S. Grimme, J. Chem. Theory Comput., 2019, 155, 2847-2862
     DOI: 10.1021/acs.jctc.9b00143
   
   for SPH calculations refer to:
   * S. Spicher and S. Grimme, J. Chem. Theory Comput., 2021, 17, 1701-1714
     DOI: 10.1021/acs.jctc.0c01306
   
   for ONIOM refer to:
   * C. Plett, A. Katbashev, S. Ehlert, S. Grimme, M. Bursch,
     Phys. Chem. Chem. Phys., 2023, 25, 17860-17868. DOI: 10.1039/D3CP02178E
   
   for DIPRO refer to:
   * J. Kohn, N. Gildemeister, S. Grimme, D. Fazzi, A. Hansen,
     J. Chem. Phys., 2023, just accepted.
   
   for PTB refer to:
   * S. Grimme, M. Mueller, A. Hansen, J. Chem. Phys., 2023, 158, 124111.
     DOI: 10.1063/5.0137838
   
   with help from (in alphabetical order)
   P. Atkinson, C. Bannwarth, F. Bohle, G. Brandenburg, E. Caldeweyher
   M. Checinski, S. Dohm, S. Ehlert, S. Ehrlich, I. Gerasimov, C. Hölzer
   A. Katbashev, J. Kohn, J. Koopman, C. Lavigne, S. Lehtola, F. März, M. Müller,
   F. Musil, H. Neugebauer, J. Pisarek, C. Plett, P. Pracht, F. Pultar,
   J. Seibert, P. Shushkov, S. Spicher, M. Stahn, M. Steiner, T. Strunk,
   J. Stückrath, T. Rose, and J. Unsleber
   
 * started run on 2024/12/19 at 11:03:04.274     
   ID    Z sym.   atoms
    1    6 C      1-5, 7-11, 13-16, 19, 20
    2    8 O      6, 17
    3    7 N      12, 18
    4    1 H      21-34

           -------------------------------------------------
          |                Calculation Setup                |
           -------------------------------------------------

          program call               : /home/mmaximo/orca_6_0_1_avx2/otool_xtb HBQ_GS-GOAT_XTB.xyz --grad -c 0 -u 0 -P 1 --namespace HBQ_GS-GOAT --input HBQ_GS-GOAT_XTB.input.tmp --cosmo WATER --acc 0.200000
          hostname                   : n02
          calculation namespace      : HBQ_GS-GOAT
          coordinate file            : HBQ_GS-GOAT_XTB.xyz
          omp threads                :                     1


           -------------------------------------------------
          |                 G F N 2 - x T B                 |
           -------------------------------------------------

        Reference                      10.1021/acs.jctc.8b01176
      * Hamiltonian:
        H0-scaling (s, p, d)           1.850000    2.230000    2.230000
        zeta-weighting                 0.500000
      * Dispersion:
        s8                             2.700000
        a1                             0.520000
        a2                             5.000000
        s9                             5.000000
      * Repulsion:
        kExp                           1.500000    1.000000
        rExp                           1.000000
      * Coulomb:
        alpha                          2.000000
        third order                    shell-resolved
        anisotropic                    true
        a3                             3.000000
        a5                             4.000000
        cn-shift                       1.200000
        cn-exp                         4.000000
        max-rad                        5.000000

      * Solvation model:               COSMO
        Solvent                        WATER
        Parameter file                 internal GFN2-xTB/ALPB+COSMO
        Dielectric constant                8.0200E+01
        Reference state                gsolv [1 M gas/solution]
        Free energy shift                  0.0000E+00 Eh       0.0000E+00 kcal/mol
        Temperature                        2.9815E+02 K
        Density                            1.0000E+00 kg/L
        Solvent mass                       1.8000E+01 g/mol
        vdW Radii scaling                  1.0000E+00
        Surface tension                    1.0000E-05 Eh       1.5569E+01 dyn/cm
        Grid points                               230 per atom

          ...................................................
          :                      SETUP                      :
          :.................................................:
          :  # basis functions                  94          :
          :  # atomic orbitals                  94          :
          :  # shells                           54          :
          :  # electrons                       100          :
          :  max. iterations                   250          :
          :  Hamiltonian                  GFN2-xTB          :
          :  restarted?                      false          :
          :  GBSA solvation                   true          :
          :  PC potential                    false          :
          :  electronic temp.          300.0000000     K    :
          :  accuracy                    0.2000000          :
          :  -> integral cutoff          0.3198970E+02      :
          :  -> integral neglect         0.2000000E-08      :
          :  -> SCF convergence          0.2000000E-06 Eh   :
          :  -> wf. convergence          0.2000000E-04 e    :
          :  Broyden damping             0.4000000          :
          :  net charge                          0          :
          :  unpaired electrons                  0          :
          ...................................................

 iter      E             dE          RMSdq      gap      omega  full diag
   1    -56.1446081 -0.561446E+02  0.444E+00    2.95       0.0  T
   2    -56.2561230 -0.111515E+00  0.258E+00    2.58       1.0  T
   3    -56.2304274  0.256956E-01  0.122E+00    2.71       1.0  T
   4    -56.2622697 -0.318423E-01  0.275E-01    2.47       1.0  T
   5    -56.2617823  0.487425E-03  0.811E-02    2.51       1.0  T
   6    -56.2618165 -0.341834E-04  0.398E-02    2.51       1.0  T
   7    -56.2617374  0.790833E-04  0.135E-02    2.51       1.3  T
   8    -56.2616935  0.438958E-04  0.576E-03    2.51       3.0  T
   9    -56.2616345  0.589688E-04  0.237E-03    2.51       7.2  T
  10    -56.2616305  0.402450E-05  0.128E-03    2.51      13.4  T
  11    -56.2616219  0.863362E-05  0.516E-04    2.51      33.2  T
  12    -56.2616189  0.298867E-05  0.208E-04    2.51      82.3  T
  13    -56.2616185  0.369566E-06  0.124E-04    2.51     138.5  T
  14    -56.2616187 -0.193862E-06  0.427E-05    2.51     401.9  T
  15    -56.2616188 -0.750815E-07  0.183E-05    2.51     935.7  T

   *** convergence criteria satisfied after 15 iterations ***

         #    Occupation            Energy/Eh            Energy/eV
      -------------------------------------------------------------
         1        2.0000           -0.7369322             -20.0529
       ...           ...                  ...                  ...
        44        2.0000           -0.4331693             -11.7871
        45        2.0000           -0.4271417             -11.6231
        46        2.0000           -0.4227812             -11.5045
        47        2.0000           -0.4047169             -11.0129
        48        2.0000           -0.3931173             -10.6973
        49        2.0000           -0.3895874             -10.6012
        50        2.0000           -0.3722228             -10.1287 (HOMO)
        51                         -0.2798301              -7.6146 (LUMO)
        52                         -0.2680264              -7.2934
        53                         -0.2313666              -6.2958
        54                         -0.2091112              -5.6902
        55                         -0.1986963              -5.4068
       ...                                ...                  ...
        94                          0.6786091              18.4659
      -------------------------------------------------------------
                  HL-Gap            0.0923927 Eh            2.5141 eV
             Fermi-level           -0.3260265 Eh           -8.8716 eV

 SCC (total)                   0 d,  0 h,  0 min,  0.689 sec
 SCC setup                      ...        0 min,  0.012 sec (  1.689%)
 Dispersion                     ...        0 min,  0.002 sec (  0.231%)
 classical contributions        ...        0 min,  0.000 sec (  0.008%)
 integral evaluation            ...        0 min,  0.010 sec (  1.505%)
 iterations                     ...        0 min,  0.615 sec ( 89.264%)
 molecular gradient             ...        0 min,  0.041 sec (  5.939%)
 printout                       ...        0 min,  0.009 sec (  1.362%)

         :::::::::::::::::::::::::::::::::::::::::::::::::::::
         ::                     SUMMARY                     ::
         :::::::::::::::::::::::::::::::::::::::::::::::::::::
         :: total energy             -55.435852501251 Eh    ::
         :: total w/o Gsasa/hb       -55.433008915253 Eh    ::
         :: gradient norm              0.026795320488 Eh/a0 ::
         :: HOMO-LUMO gap              2.514133728305 eV    ::
         ::.................................................::
         :: SCC energy               -56.261334527833 Eh    ::
         :: -> isotropic ES            0.090313830101 Eh    ::
         :: -> anisotropic ES         -0.002933277061 Eh    ::
         :: -> anisotropic XC          0.027475999709 Eh    ::
         :: -> dispersion             -0.038303045736 Eh    ::
         :: -> Gsolv                  -0.023885443707 Eh    ::
         ::    -> Gelec               -0.021041857709 Eh    ::
         ::    -> Gsasa               -0.002843585998 Eh    ::
         ::    -> Ghb                  0.000000000000 Eh    ::
         ::    -> Gshift               0.000000000000 Eh    ::
         :: repulsion energy           0.825482026583 Eh    ::
         :: add. restraining           0.000000000000 Eh    ::
         :: total charge               0.000000000000 e     ::
         :::::::::::::::::::::::::::::::::::::::::::::::::::::


Property printout bound to 'properties.out'

           -------------------------------------------------
          | TOTAL ENERGY              -55.435852501251 Eh   |
          | GRADIENT NORM               0.026795320488 Eh/α |
          | HOMO-LUMO GAP               2.514133728305 eV   |
           -------------------------------------------------

------------------------------------------------------------------------
 * finished run on 2024/12/19 at 11:03:05.122     
------------------------------------------------------------------------
 total:
 * wall-time:     0 d,  0 h,  0 min,  0.836 sec
 *  cpu-time:     0 d,  0 h,  0 min,  0.633 sec
 * ratio c/w:     0.757 speedup
 SCF:
 * wall-time:     0 d,  0 h,  0 min,  0.698 sec
 *  cpu-time:     0 d,  0 h,  0 min,  0.616 sec
 * ratio c/w:     0.882 speedup


-------------------------   --------------------
FINAL SINGLE POINT ENERGY       -55.435852501250
-------------------------   --------------------


-------------
DIPOLE MOMENT
-------------
                                X             Y             Z
Total Dipole Moment    :      0.52100      -0.53900       1.13300
                        -----------------------------------------
Magnitude (a.u.)       :      1.35855
Magnitude (Debye)      :      3.45315

------------------------------------------------------------------------------
                         ORCA GEOMETRY RELAXATION STEP
------------------------------------------------------------------------------

Reading the OPT-File                    .... done
Getting information on internals        .... done
Copying old internal coords+grads       .... done
Making the new internal coordinates     .... (2022 redundants) done
Validating the new internal coordinates .... (2022 redundants) done
Calculating the B-matrix                .... done
Calculating the G,G- and P matrices     .... done
Transforming gradient to internals      .... done
Projecting the internal gradient        .... done
Number of atoms                         ....  34
Number of internal coordinates          .... 173
Current Energy                          ....   -55.435852501 Eh
Current gradient norm                   ....     0.026795320 Eh/bohr
Maximum allowed component of the step   ....  0.300
Current trust radius                    ....  0.300
Evaluating the initial hessian          ....  (Almloef) done
Projecting the Hessian                  .... done
Forming the augmented Hessian           .... done
Diagonalizing the augmented Hessian     .... done
Last element of RFO vector              ....  0.977051911
Lowest eigenvalues of augmented Hessian:
 -0.005487304  0.016096156  0.016339905  0.019180308  0.019731998
Length of the computed step             ....  0.218004100
The final length of the internal step   ....  0.218004100
Converting the step to Cartesian space:
 Initial RMS(Int)=    0.0165745448
Transforming coordinates:
 Iter   0:  RMS(Cart)=    0.1905578154 RMS(Int)=    1.8459681768
 Iter   5:  RMS(Cart)=    0.0000009285 RMS(Int)=    0.0000003090
done
Storing new coordinates                 .... done

                                .--------------------.
          ----------------------|Geometry convergence|-------------------------
          Item                value                   Tolerance       Converged
          ---------------------------------------------------------------------
          RMS gradient        0.0035960105            0.0001000000      NO
          MAX gradient        0.0160892935            0.0003000000      NO
          RMS step            0.0165745448            0.0020000000      NO
          MAX step            0.1312046129            0.0040000000      NO
          ........................................................
          Max(Bonds)      0.0175      Max(Angles)    1.55
          Max(Dihed)        7.52      Max(Improp)    0.00
          ---------------------------------------------------------------------

The optimization has not yet converged - more geometry cycles are needed


    ---------------------------------------------------------------------------
                         Redundant Internal Coordinates
                            (Angstroem and degrees)

        Definition                    Value    dE/dq     Step     New-Value
    ----------------------------------------------------------------------------
     1. B(C   1,C   0)                1.3982  0.004281 -0.0035    1.3947   
     2. B(C   2,C   1)                1.3740  0.002873 -0.0021    1.3719   
     3. B(C   3,C   0)                1.3774  0.000534 -0.0004    1.3770   
     4. B(C   4,C   3)                1.4184  0.013068 -0.0124    1.4060   
     5. B(O   5,C   3)                1.3914  0.000612 -0.0006    1.3908   
     6. B(C   6,C   4)                1.4281  0.010829 -0.0109    1.4172   
     7. B(C   6,C   2)                1.4088  0.004716 -0.0042    1.4046   
     8. B(C   7,C   6)                1.4323  0.004990 -0.0048    1.4274   
     9. B(C   8,C   7)                1.3522  0.000659 -0.0003    1.3519   
    10. B(C   9,C   4)                1.4566  0.016089 -0.0175    1.4391   
    11. B(C  10,C   9)                1.4225  0.007109 -0.0068    1.4157   
    12. B(C  10,C   8)                1.4279  0.004580 -0.0042    1.4237   
    13. B(N  11,C   9)                1.3523  0.011449 -0.0097    1.3426   
    14. B(C  12,N  11)                1.3212  0.012906 -0.0097    1.3116   
    15. B(C  13,C  12)                1.4010  0.003213 -0.0028    1.3982   
    16. B(C  14,C  13)                1.3734  0.000935 -0.0004    1.3730   
    17. B(C  14,C  10)                1.4064  0.003647 -0.0029    1.4035   
    18. B(C  15,O   5)                1.3710  0.009021 -0.0079    1.3631   
    19. B(O  16,C  15)                1.2216  0.001972 -0.0010    1.2206   
    20. B(N  17,C  15)                1.3470  0.013950 -0.0112    1.3358   
    21. B(C  18,N  17)                1.4589  0.011129 -0.0134    1.4455   
    22. B(C  19,N  17)                1.4569  0.008289 -0.0099    1.4470   
    23. B(H  20,C  19)                1.0846 -0.001378  0.0020    1.0866   
    24. B(H  21,C  19)                1.0913  0.001067 -0.0016    1.0898   
    25. B(H  22,C  19)                1.0937  0.001324 -0.0019    1.0917   
    26. B(H  23,C  18)                1.0840 -0.000910  0.0013    1.0853   
    27. B(H  24,C  18)                1.0940  0.001467 -0.0022    1.0918   
    28. B(H  25,C  18)                1.0903  0.001108 -0.0016    1.0887   
    29. B(H  26,C   2)                1.0828  0.002842 -0.0040    1.0788   
    30. B(H  27,C   0)                1.0820  0.002117 -0.0030    1.0790   
    31. B(H  28,C   1)                1.0822  0.002792 -0.0039    1.0783   
    32. B(H  29,C   7)                1.0830  0.002722 -0.0038    1.0792   
    33. B(H  30,C   8)                1.0833  0.002613 -0.0037    1.0796   
    34. B(H  31,C  12)                1.0856  0.002915 -0.0042    1.0815   
    35. B(H  32,C  13)                1.0817  0.002687 -0.0038    1.0779   
    36. B(H  33,C  14)                1.0835  0.002115 -0.0030    1.0805   
    37. A(C   1,C   0,C   3)          120.79  0.001934   -0.26    120.53   
    38. A(C   3,C   0,H  27)          118.39 -0.001019    0.14    118.53   
    39. A(C   1,C   0,H  27)          120.81 -0.000915    0.12    120.94   
    40. A(C   2,C   1,H  28)          120.73 -0.000416    0.04    120.77   
    41. A(C   0,C   1,C   2)          119.42 -0.000059    0.06    119.48   
    42. A(C   0,C   1,H  28)          119.85  0.000475   -0.10    119.75   
    43. A(C   1,C   2,H  26)          120.64 -0.000098    0.01    120.65   
    44. A(C   1,C   2,C   6)          120.79  0.000098    0.00    120.79   
    45. A(C   6,C   2,H  26)          118.57 -0.000002   -0.01    118.56   
    46. A(C   4,C   3,O   5)          122.49  0.009082   -1.14    121.35   
    47. A(C   0,C   3,C   4)          121.90  0.001758   -0.22    121.67   
    48. A(C   0,C   3,O   5)          115.43 -0.010938    1.55    116.99   
    49. A(C   3,C   4,C   9)          125.50  0.010945   -1.41    124.09   
    50. A(C   3,C   4,C   6)          116.34 -0.006334    0.81    117.16   
    51. A(C   6,C   4,C   9)          118.16 -0.004616    0.61    118.76   
    52. A(C   3,O   5,C  15)          117.93  0.005142   -0.70    117.23   
    53. A(C   4,C   6,C   7)          120.23  0.002201   -0.32    119.91   
    54. A(C   2,C   6,C   7)          119.02 -0.004803    0.70    119.72   
    55. A(C   2,C   6,C   4)          120.75  0.002601   -0.38    120.37   
    56. A(C   6,C   7,H  29)          117.88  0.000014   -0.03    117.86   
    57. A(C   6,C   7,C   8)          121.48  0.001083   -0.12    121.36   
    58. A(C   8,C   7,H  29)          120.64 -0.001098    0.15    120.79   
    59. A(C   7,C   8,H  30)          121.01 -0.001474    0.20    121.20   
    60. A(C  10,C   8,H  30)          118.57  0.000620   -0.14    118.43   
    61. A(C   7,C   8,C  10)          120.42  0.000854   -0.06    120.37   
    62. A(C   4,C   9,C  10)          119.14 -0.001554    0.18    119.32   
    63. A(C  10,C   9,N  11)          120.87 -0.004932    0.64    121.51   
    64. A(C   4,C   9,N  11)          119.99  0.006487   -0.82    119.17   
    65. A(C   9,C  10,C  14)          118.28  0.002438   -0.29    117.99   
    66. A(C   8,C  10,C  14)          121.15 -0.004467    0.57    121.72   
    67. A(C   8,C  10,C   9)          120.57  0.002029   -0.29    120.29   
    68. A(C   9,N  11,C  12)          119.25  0.000416   -0.18    119.07   
    69. A(N  11,C  12,H  31)          116.30  0.003528   -0.53    115.77   
    70. A(N  11,C  12,C  13)          123.88 -0.000832    0.07    123.95   
    71. A(C  13,C  12,H  31)          119.83 -0.002696    0.46    120.28   
    72. A(C  12,C  13,H  32)          120.33  0.000145   -0.06    120.27   
    73. A(C  12,C  13,C  14)          117.95  0.000221    0.03    117.99   
    74. A(C  14,C  13,H  32)          121.72 -0.000366    0.03    121.74   
    75. A(C  10,C  14,H  33)          119.11 -0.001041    0.09    119.20   
    76. A(C  10,C  14,C  13)          119.77  0.002687   -0.27    119.51   
    77. A(C  13,C  14,H  33)          121.11 -0.001646    0.18    121.29   
    78. A(O  16,C  15,N  17)          125.86  0.002921   -0.34    125.52   
    79. A(O   5,C  15,N  17)          111.70 -0.001688    0.23    111.92   
    80. A(O   5,C  15,O  16)          122.43 -0.001258    0.16    122.59   
    81. A(C  18,N  17,C  19)          116.11 -0.000682    0.13    116.24   
    82. A(C  15,N  17,C  19)          119.43 -0.001493    0.24    119.68   
    83. A(C  15,N  17,C  18)          123.81  0.002115   -0.27    123.54   
    84. A(H  24,C  18,H  25)          108.45 -0.001969    0.46    108.91   
    85. A(H  23,C  18,H  25)          108.87 -0.002162    0.42    109.29   
    86. A(N  17,C  18,H  25)          108.53  0.000994   -0.13    108.39   
    87. A(H  23,C  18,H  24)          109.19 -0.001876    0.21    109.41   
    88. A(N  17,C  18,H  24)          111.08  0.001747   -0.33    110.74   
    89. A(N  17,C  18,H  23)          110.67  0.003103   -0.60    110.07   
    90. A(H  21,C  19,H  22)          108.52 -0.001819    0.45    108.97   
    91. A(H  20,C  19,H  22)          109.22 -0.001348    0.19    109.41   
    92. A(N  17,C  19,H  22)          110.50  0.001144   -0.19    110.31   
    93. A(H  20,C  19,H  21)          109.41 -0.001295    0.18    109.59   
    94. A(N  17,C  19,H  21)          109.55  0.000568   -0.09    109.46   
    95. A(N  17,C  19,H  20)          109.62  0.002673   -0.52    109.10   
    96. D(H  28,C   1,C   0,C   3)   -179.86  0.000081   -0.17   -180.03   
    97. D(C   2,C   1,C   0,C   3)      0.33  0.000255   -0.66     -0.34   
    98. D(H  28,C   1,C   0,H  27)      0.45  0.000059   -0.28      0.17   
    99. D(C   2,C   1,C   0,H  27)   -179.37  0.000234   -0.77   -180.14   
   100. D(C   6,C   2,C   1,C   0)     -0.02  0.000128   -0.12     -0.14   
   101. D(H  26,C   2,C   1,C   0)    179.68 -0.000244    0.58    180.25   
   102. D(C   6,C   2,C   1,H  28)   -179.83  0.000303   -0.62   -180.45   
   103. D(H  26,C   2,C   1,H  28)     -0.14 -0.000070    0.08     -0.06   
   104. D(O   5,C   3,C   0,C   1)   -175.42  0.000441   -1.59   -177.02   
   105. D(C   4,C   3,C   0,H  27)    179.47 -0.000415    0.95    180.42   
   106. D(C   4,C   3,C   0,C   1)     -0.23 -0.000436    0.84      0.62   
   107. D(O   5,C   3,C   0,H  27)      4.28  0.000461   -1.48      2.79   
   108. D(C   6,C   4,C   3,O   5)    174.68 -0.001683    2.51    177.20   
   109. D(C   9,C   4,C   3,C   0)   -179.73  0.000972   -1.71   -181.45   
   110. D(C   9,C   4,C   3,O   5)     -4.88 -0.000956    1.03     -3.85   
   111. D(C   6,C   4,C   3,C   0)     -0.17  0.000245   -0.23     -0.40   
   112. D(C  15,O   5,C   3,C   4)     83.44  0.003694   -7.52     75.92   
   113. D(C  15,O   5,C   3,C   0)   -101.40  0.002415   -5.01   -106.41   
   114. D(C   7,C   6,C   4,C   9)      0.44 -0.000153    0.25      0.69   
   115. D(C   7,C   6,C   4,C   3)   -179.15  0.000446   -1.11   -180.27   
   116. D(C   2,C   6,C   4,C   9)   -179.93 -0.000464    0.81   -179.12   
   117. D(C   2,C   6,C   4,C   3)      0.47  0.000134   -0.55     -0.08   
   118. D(C   7,C   6,C   2,H  26)     -0.46 -0.000256    0.61      0.14   
   119. D(C   7,C   6,C   2,C   1)    179.24 -0.000621    1.29    180.53   
   120. D(C   4,C   6,C   2,H  26)    179.91  0.000026    0.05    179.96   
   121. D(C   4,C   6,C   2,C   1)     -0.39 -0.000339    0.74      0.35   
   122. D(H  29,C   7,C   6,C   4)   -179.98 -0.000024   -0.06   -180.03   
   123. D(H  29,C   7,C   6,C   2)      0.39  0.000255   -0.60     -0.22   
   124. D(C   8,C   7,C   6,C   4)      0.24  0.000276   -0.58     -0.34   
   125. D(C   8,C   7,C   6,C   2)   -179.39  0.000555   -1.13   -180.52   
   126. D(C  10,C   8,C   7,C   6)     -0.52 -0.000136    0.28     -0.25   
   127. D(H  30,C   8,C   7,H  29)     -0.03  0.000067   -0.14     -0.17   
   128. D(H  30,C   8,C   7,C   6)    179.74 -0.000239    0.40    180.14   
   129. D(C  10,C   8,C   7,H  29)    179.70  0.000170   -0.26    179.44   
   130. D(N  11,C   9,C   4,C   6)    178.86 -0.000088    0.28    179.13   
   131. D(N  11,C   9,C   4,C   3)     -1.59 -0.000831    1.78      0.20   
   132. D(C  10,C   9,C   4,C   6)     -0.84 -0.000102    0.36     -0.48   
   133. D(C  10,C   9,C   4,C   3)    178.72 -0.000845    1.87    180.59   
   134. D(C  14,C  10,C   9,N  11)      0.56  0.000241   -0.51      0.05   
   135. D(C  14,C  10,C   9,C   4)   -179.75  0.000291   -0.60   -180.35   
   136. D(C   8,C  10,C   9,N  11)   -179.11  0.000255   -0.58   -179.69   
   137. D(C   8,C  10,C   9,C   4)      0.58  0.000305   -0.67     -0.09   
   138. D(C  14,C  10,C   8,H  30)      0.19 -0.000088    0.17      0.36   
   139. D(C  14,C  10,C   8,C   7)   -179.55 -0.000183    0.29   -179.27   
   140. D(C   9,C  10,C   8,H  30)    179.85 -0.000079    0.24    180.09   
   141. D(C   9,C  10,C   8,C   7)      0.10 -0.000173    0.36      0.46   
   142. D(C  12,N  11,C   9,C  10)     -0.46 -0.000355    0.65      0.19   
   143. D(C  12,N  11,C   9,C   4)    179.86 -0.000381    0.73    180.59   
   144. D(H  31,C  12,N  11,C   9)    179.90  0.000070   -0.09    179.81   
   145. D(C  13,C  12,N  11,C   9)      0.04  0.000235   -0.32     -0.27   
   146. D(H  32,C  13,C  12,H  31)      0.18  0.000038   -0.07      0.11   
   147. D(H  32,C  13,C  12,N  11)   -179.97 -0.000124    0.17   -179.80   
   148. D(C  14,C  13,C  12,H  31)   -179.59  0.000208   -0.39   -179.98   
   149. D(C  14,C  13,C  12,N  11)      0.26  0.000046   -0.15      0.11   
   150. D(H  33,C  14,C  13,H  32)     -0.07  0.000027   -0.04     -0.11   
   151. D(H  33,C  14,C  13,C  12)    179.69 -0.000145    0.29    179.98   
   152. D(C  10,C  14,C  13,H  32)   -179.90 -0.000003   -0.05   -179.95   
   153. D(C  10,C  14,C  13,C  12)     -0.14 -0.000175    0.28      0.14   
   154. D(H  33,C  14,C  10,C   9)    179.92 -0.000022    0.04    179.95   
   155. D(H  33,C  14,C  10,C   8)     -0.42 -0.000013    0.10     -0.31   
   156. D(C  13,C  14,C  10,C   9)     -0.25  0.000007    0.04     -0.21   
   157. D(C  13,C  14,C  10,C   8)    179.42  0.000016    0.11    179.53   
   158. D(O  16,C  15,O   5,C   3)      5.31  0.000594   -0.93      4.37   
   159. D(N  17,C  15,O   5,C   3)   -175.89 -0.000565    0.88   -175.01   
   160. D(C  19,N  17,C  15,O  16)      6.02 -0.000439    0.64      6.67   
   161. D(C  19,N  17,C  15,O   5)   -172.73  0.000831   -1.25   -173.98   
   162. D(C  18,N  17,C  15,O  16)    176.44 -0.000963    1.44    177.87   
   163. D(C  18,N  17,C  15,O   5)     -2.32  0.000307   -0.46     -2.78   
   164. D(H  25,C  18,N  17,C  15)    145.98  0.000544   -0.60    145.38   
   165. D(H  24,C  18,N  17,C  19)     75.82 -0.000795    0.46     76.28   
   166. D(H  24,C  18,N  17,C  15)    -94.88 -0.000204   -0.32    -95.20   
   167. D(H  23,C  18,N  17,C  19)   -162.71  0.000128    0.10   -162.62   
   168. D(H  23,C  18,N  17,C  15)     26.58  0.000719   -0.68     25.90   
   169. D(H  22,C  19,N  17,C  15)    109.33  0.000513    0.51    109.84   
   170. D(H  21,C  19,N  17,C  18)     57.70 -0.000454    0.20     57.90   
   171. D(H  21,C  19,N  17,C  15)   -131.16 -0.000665    0.89   -130.27   
   172. D(H  20,C  19,N  17,C  18)    177.76 -0.000046    0.04    177.81   
   173. D(H  20,C  19,N  17,C  15)    -11.10 -0.000257    0.74    -10.36   
    ----------------------------------------------------------------------------

Geometry step timings:
Preparation and reading OPT file:      0.003 s (13.027 %)
Internal coordinates            :      0.000 s ( 0.203 %)
B/P matrices and projection     :      0.003 s (14.396 %)
Hessian update/contruction      :      0.007 s (35.713 %)
Making the step                 :      0.003 s (15.512 %)
Converting the step to Cartesian:      0.000 s ( 1.388 %)
Storing new data                :      0.002 s (10.290 %)
Checking convergence            :      0.000 s ( 0.040 %)
Final printing                  :      0.002 s ( 9.347 %)
Total time                      :      0.020 s

Time for energy+gradient        :      0.934 s
Time for complete geometry iter :      0.986 s

         *************************************************************
         *                GEOMETRY OPTIMIZATION CYCLE   2            *
         *************************************************************
---------------------------------
CARTESIAN COORDINATES (ANGSTROEM)
---------------------------------
  C    -3.311680   -0.735243   -0.613773
  C    -2.789956   -1.570144   -1.601687
  C    -1.437869   -1.578405   -1.833699
  C    -2.480636    0.071427    0.131052
  C    -1.090874    0.095140   -0.080723
  O    -3.071579    0.826726    1.138382
  C    -0.575841   -0.755057   -1.090866
  C     0.826002   -0.773471   -1.359256
  C     1.684233    0.012907   -0.671778
  C    -0.178796    0.938286    0.646041
  C     1.202908    0.889280    0.341753
  N    -0.660030    1.759743    1.592750
  C     0.171573    2.535700    2.245840
  C     1.551745    2.563212    2.023740
  C     2.066324    1.728843    1.062449
  C    -3.201005    2.165934    0.919617
  O    -2.893862    2.691751   -0.138241
  N    -3.681041    2.802101    1.991654
  C    -4.073183    2.130129    3.209912
  C    -4.008590    4.208741    1.902938
  H    -3.629573    4.603564    0.964264
  H    -3.549481    4.741635    2.735294
  H    -5.090422    4.349271    1.945126
  H    -3.530080    1.196041    3.311393
  H    -5.146125    1.927937    3.211812
  H    -3.834723    2.778047    4.051655
  H    -1.014569   -2.213608   -2.595965
  H    -4.371576   -0.708188   -0.413279
  H    -3.452271   -2.196983   -2.177119
  H     1.182257   -1.433688   -2.135035
  H     2.743807   -0.001352   -0.878369
  H    -0.273314    3.177646    2.993871
  H     2.181527    3.223219    2.597969
  H     3.124849    1.706699    0.846655

----------------------------
CARTESIAN COORDINATES (A.U.)
----------------------------
  NO LB    ZA    FRAG    MASS        X           Y           Z
   0 C   6.0000    1    12.011   -6.258168   -1.389408   -1.159863
   1 C   6.0000    1    12.011   -5.272253   -2.967143   -3.026750
   2 C   6.0000    1    12.011   -2.717179   -2.982753   -3.465188
   3 C   6.0000    1    12.011   -4.687722    0.134978    0.247653
   4 C   6.0000    1    12.011   -2.061454    0.179788   -0.152544
   5 O   8.0000    1    15.999   -5.804443    1.562285    2.151231
   6 C   6.0000    1    12.011   -1.088181   -1.426850   -2.061438
   7 C   6.0000    1    12.011    1.560917   -1.461649   -2.568622
   8 C   6.0000    1    12.011    3.182739    0.024391   -1.269476
   9 C   6.0000    1    12.011   -0.337875    1.773103    1.220841
  10 C   6.0000    1    12.011    2.273168    1.680496    0.645820
  11 N   7.0000    1    14.007   -1.247276    3.325432    3.009862
  12 C   6.0000    1    12.011    0.324226    4.791778    4.244023
  13 C   6.0000    1    12.011    2.932373    4.843768    3.824315
  14 C   6.0000    1    12.011    3.904786    3.267039    2.007737
  15 C   6.0000    1    12.011   -6.049024    4.093022    1.737824
  16 O   8.0000    1    15.999   -5.468606    5.086672   -0.261238
  17 N   7.0000    1    14.007   -6.956159    5.295204    3.763681
  18 C   6.0000    1    12.011   -7.697200    4.025361    6.065855
  19 C   6.0000    1    12.011   -7.575137    7.953367    3.596032
  20 H   1.0000    1     1.008   -6.858899    8.699476    1.822195
  21 H   1.0000    1     1.008   -6.707548    8.960391    5.168956
  22 H   1.0000    1     1.008   -9.619504    8.218931    3.675755
  23 H   1.0000    1     1.008   -6.670885    2.260190    6.257627
  24 H   1.0000    1     1.008   -9.724767    3.643272    6.069445
  25 H   1.0000    1     1.008   -7.246575    5.249749    7.656518
  26 H   1.0000    1     1.008   -1.917257   -4.183112   -4.905663
  27 H   1.0000    1     1.008   -8.261081   -1.338282   -0.780984
  28 H   1.0000    1     1.008   -6.523847   -4.151696   -4.114159
  29 H   1.0000    1     1.008    2.234143   -2.709277   -4.034632
  30 H   1.0000    1     1.008    5.185044   -0.002556   -1.659876
  31 H   1.0000    1     1.008   -0.516489    6.004880    5.657596
  32 H   1.0000    1     1.008    4.122488    6.091001    4.909451
  33 H   1.0000    1     1.008    5.905108    3.225194    1.599946

      -----------------------------------------------------------      
     |                   =====================                   |     
     |                           x T B                           |     
     |                   =====================                   |     
     |                         S. Grimme                         |     
     |          Mulliken Center for Theoretical Chemistry        |     
     |                    University of Bonn                     |     
      -----------------------------------------------------------      

   * xtb version 6.7.1 (edcfbbe) compiled by 'albert@albert-system' on 2024-07-22

   xtb is free software: you can redistribute it and/or modify it under
   the terms of the GNU Lesser General Public License as published by
   the Free Software Foundation, either version 3 of the License, or
   (at your option) any later version.
   
   xtb is distributed in the hope that it will be useful,
   but WITHOUT ANY WARRANTY; without even the implied warranty of
   MERCHANTABILITY or FITNESS FOR A PARTICULAR PURPOSE.  See the
   GNU Lesser General Public License for more details.
   
   Cite this work as:
   * C. Bannwarth, E. Caldeweyher, S. Ehlert, A. Hansen, P. Pracht,
     J. Seibert, S. Spicher, S. Grimme, WIREs Comput. Mol. Sci., 2020, 11,
     e01493. DOI: 10.1002/wcms.1493
   
   for GFN2-xTB:
   * C. Bannwarth, S. Ehlert and S. Grimme., J. Chem. Theory Comput., 2019,
     15, 1652-1671. DOI: 10.1021/acs.jctc.8b01176
   for GFN1-xTB:
   * S. Grimme, C. Bannwarth, P. Shushkov, J. Chem. Theory Comput., 2017,
     13, 1989-2009. DOI: 10.1021/acs.jctc.7b00118
   for GFN0-xTB:
   * P. Pracht, E. Caldeweyher, S. Ehlert, S. Grimme, ChemRxiv, 2019, preprint.
     DOI: 10.26434/chemrxiv.8326202.v1
   for GFN-FF:
   * S. Spicher and S. Grimme, Angew. Chem. Int. Ed., 2020, 59, 15665-15673.
     DOI: 10.1002/anie.202004239
   
   for ALPB and GBSA implicit solvation:
   * S. Ehlert, M. Stahn, S. Spicher, S. Grimme, J. Chem. Theory Comput.,
     2021, 17, 4250-4261. DOI: 10.1021/acs.jctc.1c00471
   
   for ddCOSMO and CPCM-X implicit solvation:
   * M. Stahn, S. Ehlert, S. Grimme, J. Phys. Chem. A,
     2023, XX, XXXX-XXXX. DOI: 10.1021/acs.jpca.3c04382
   
   for DFT-D4:
   * E. Caldeweyher, C. Bannwarth and S. Grimme, J. Chem. Phys., 2017,
     147, 034112. DOI: 10.1063/1.4993215
   * E. Caldeweyher, S. Ehlert, A. Hansen, H. Neugebauer, S. Spicher,
     C. Bannwarth and S. Grimme, J. Chem. Phys., 2019, 150, 154122.
     DOI: 10.1063/1.5090222
   * E. Caldeweyher, J.-M. Mewes, S. Ehlert and S. Grimme, Phys. Chem. Chem. Phys.
     2020, 22, 8499-8512. DOI: 10.1039/D0CP00502A
   
   for sTDA-xTB:
   * S. Grimme and C. Bannwarth, J. Chem. Phys., 2016, 145, 054103.
     DOI: 10.1063/1.4959605
   
   in the mass-spec context:
   * V. Asgeirsson, C. Bauer and S. Grimme, Chem. Sci., 2017, 8, 4879.
     DOI: 10.1039/c7sc00601b
   * J. Koopman and S. Grimme, ACS Omega 2019, 4, 12, 15120-15133.
     DOI: 10.1021/acsomega.9b02011
   
   for metadynamics refer to:
   * S. Grimme, J. Chem. Theory Comput., 2019, 155, 2847-2862
     DOI: 10.1021/acs.jctc.9b00143
   
   for SPH calculations refer to:
   * S. Spicher and S. Grimme, J. Chem. Theory Comput., 2021, 17, 1701-1714
     DOI: 10.1021/acs.jctc.0c01306
   
   for ONIOM refer to:
   * C. Plett, A. Katbashev, S. Ehlert, S. Grimme, M. Bursch,
     Phys. Chem. Chem. Phys., 2023, 25, 17860-17868. DOI: 10.1039/D3CP02178E
   
   for DIPRO refer to:
   * J. Kohn, N. Gildemeister, S. Grimme, D. Fazzi, A. Hansen,
     J. Chem. Phys., 2023, just accepted.
   
   for PTB refer to:
   * S. Grimme, M. Mueller, A. Hansen, J. Chem. Phys., 2023, 158, 124111.
     DOI: 10.1063/5.0137838
   
   with help from (in alphabetical order)
   P. Atkinson, C. Bannwarth, F. Bohle, G. Brandenburg, E. Caldeweyher
   M. Checinski, S. Dohm, S. Ehlert, S. Ehrlich, I. Gerasimov, C. Hölzer
   A. Katbashev, J. Kohn, J. Koopman, C. Lavigne, S. Lehtola, F. März, M. Müller,
   F. Musil, H. Neugebauer, J. Pisarek, C. Plett, P. Pracht, F. Pultar,
   J. Seibert, P. Shushkov, S. Spicher, M. Stahn, M. Steiner, T. Strunk,
   J. Stückrath, T. Rose, and J. Unsleber
   
 * started run on 2024/12/19 at 11:03:05.258     
   ID    Z sym.   atoms
    1    6 C      1-5, 7-11, 13-16, 19, 20
    2    8 O      6, 17
    3    7 N      12, 18
    4    1 H      21-34

           -------------------------------------------------
          |                Calculation Setup                |
           -------------------------------------------------

          program call               : /home/mmaximo/orca_6_0_1_avx2/otool_xtb HBQ_GS-GOAT_XTB.xyz --grad -c 0 -u 0 -P 1 --namespace HBQ_GS-GOAT --input HBQ_GS-GOAT_XTB.input.tmp --cosmo WATER --acc 0.200000
          hostname                   : n02
          calculation namespace      : HBQ_GS-GOAT
          coordinate file            : HBQ_GS-GOAT_XTB.xyz
          omp threads                :                     1


           -------------------------------------------------
          |                 G F N 2 - x T B                 |
           -------------------------------------------------

        Reference                      10.1021/acs.jctc.8b01176
      * Hamiltonian:
        H0-scaling (s, p, d)           1.850000    2.230000    2.230000
        zeta-weighting                 0.500000
      * Dispersion:
        s8                             2.700000
        a1                             0.520000
        a2                             5.000000
        s9                             5.000000
      * Repulsion:
        kExp                           1.500000    1.000000
        rExp                           1.000000
      * Coulomb:
        alpha                          2.000000
        third order                    shell-resolved
        anisotropic                    true
        a3                             3.000000
        a5                             4.000000
        cn-shift                       1.200000
        cn-exp                         4.000000
        max-rad                        5.000000

      * Solvation model:               COSMO
        Solvent                        WATER
        Parameter file                 internal GFN2-xTB/ALPB+COSMO
        Dielectric constant                8.0200E+01
        Reference state                gsolv [1 M gas/solution]
        Free energy shift                  0.0000E+00 Eh       0.0000E+00 kcal/mol
        Temperature                        2.9815E+02 K
        Density                            1.0000E+00 kg/L
        Solvent mass                       1.8000E+01 g/mol
        vdW Radii scaling                  1.0000E+00
        Surface tension                    1.0000E-05 Eh       1.5569E+01 dyn/cm
        Grid points                               230 per atom
q/qsh data taken from xtbrestart
CAMM data taken from xtbrestart

          ...................................................
          :                      SETUP                      :
          :.................................................:
          :  # basis functions                  94          :
          :  # atomic orbitals                  94          :
          :  # shells                           54          :
          :  # electrons                       100          :
          :  max. iterations                   250          :
          :  Hamiltonian                  GFN2-xTB          :
          :  restarted?                       true          :
          :  GBSA solvation                   true          :
          :  PC potential                    false          :
          :  electronic temp.          300.0000000     K    :
          :  accuracy                    0.2000000          :
          :  -> integral cutoff          0.3198970E+02      :
          :  -> integral neglect         0.2000000E-08      :
          :  -> SCF convergence          0.2000000E-06 Eh   :
          :  -> wf. convergence          0.2000000E-04 e    :
          :  Broyden damping             0.4000000          :
          :  net charge                          0          :
          :  unpaired electrons                  0          :
          ...................................................

 iter      E             dE          RMSdq      gap      omega  full diag
   1    -56.2917126 -0.562917E+02  0.331E-01    2.46       0.0  T
   2    -56.2908802  0.832405E-03  0.200E-01    2.52       1.0  T
   3    -56.2918108 -0.930521E-03  0.756E-02    2.50       1.0  T
   4    -56.2911019  0.708867E-03  0.156E-02    2.52       1.1  T
   5    -56.2912562 -0.154340E-03  0.604E-03    2.52       2.8  T
   6    -56.2912913 -0.350829E-04  0.317E-03    2.52       5.4  T
   7    -56.2913013 -0.993382E-05  0.103E-03    2.52      16.6  T
   8    -56.2913028 -0.156373E-05  0.486E-04    2.52      35.3  T
   9    -56.2912994  0.338888E-05  0.171E-04    2.52     100.3  T
  10    -56.2912988  0.590800E-06  0.657E-05    2.52     261.0  T
  11    -56.2912988  0.356941E-07  0.340E-05    2.52     504.9  T
  12    -56.2912988  0.327820E-07  0.137E-05    2.52    1249.7  T

   *** convergence criteria satisfied after 12 iterations ***

         #    Occupation            Energy/Eh            Energy/eV
      -------------------------------------------------------------
         1        2.0000           -0.7365363             -20.0422
       ...           ...                  ...                  ...
        44        2.0000           -0.4318197             -11.7504
        45        2.0000           -0.4262908             -11.6000
        46        2.0000           -0.4217139             -11.4754
        47        2.0000           -0.4049168             -11.0183
        48        2.0000           -0.3922107             -10.6726
        49        2.0000           -0.3886342             -10.5753
        50        2.0000           -0.3713056             -10.1037 (HOMO)
        51                         -0.2788243              -7.5872 (LUMO)
        52                         -0.2668849              -7.2623
        53                         -0.2298949              -6.2558
        54                         -0.2061177              -5.6087
        55                         -0.1917551              -5.2179
       ...                                ...                  ...
        94                          0.6969234              18.9643
      -------------------------------------------------------------
                  HL-Gap            0.0924814 Eh            2.5165 eV
             Fermi-level           -0.3250650 Eh           -8.8455 eV

 SCC (total)                   0 d,  0 h,  0 min,  0.534 sec
 SCC setup                      ...        0 min,  0.012 sec (  2.181%)
 Dispersion                     ...        0 min,  0.002 sec (  0.298%)
 classical contributions        ...        0 min,  0.000 sec (  0.010%)
 integral evaluation            ...        0 min,  0.010 sec (  1.956%)
 iterations                     ...        0 min,  0.459 sec ( 85.987%)
 molecular gradient             ...        0 min,  0.041 sec (  7.771%)
 printout                       ...        0 min,  0.010 sec (  1.794%)

         :::::::::::::::::::::::::::::::::::::::::::::::::::::
[...]
   F. Musil, H. Neugebauer, J. Pisarek, C. Plett, P. Pracht, F. Pultar,
   J. Seibert, P. Shushkov, S. Spicher, M. Stahn, M. Steiner, T. Strunk,
   J. Stückrath, T. Rose, and J. Unsleber
   
 * started run on 2024/12/19 at 11:03:21.779     
   ID    Z sym.   atoms
    1    6 C      1-5, 7-11, 13-16, 19, 20
    2    8 O      6, 17
    3    7 N      12, 18
    4    1 H      21-34

           -------------------------------------------------
          |                Calculation Setup                |
           -------------------------------------------------

          program call               : /home/mmaximo/orca_6_0_1_avx2/otool_xtb HBQ_GS-GOAT_XTB.xyz --grad -c 0 -u 0 -P 1 --namespace HBQ_GS-GOAT --input HBQ_GS-GOAT_XTB.input.tmp --cosmo WATER --acc 0.200000
          hostname                   : n02
          calculation namespace      : HBQ_GS-GOAT
          coordinate file            : HBQ_GS-GOAT_XTB.xyz
          omp threads                :                     1


           -------------------------------------------------
          |                 G F N 2 - x T B                 |
           -------------------------------------------------

        Reference                      10.1021/acs.jctc.8b01176
      * Hamiltonian:
        H0-scaling (s, p, d)           1.850000    2.230000    2.230000
        zeta-weighting                 0.500000
      * Dispersion:
        s8                             2.700000
        a1                             0.520000
        a2                             5.000000
        s9                             5.000000
      * Repulsion:
        kExp                           1.500000    1.000000
        rExp                           1.000000
      * Coulomb:
        alpha                          2.000000
        third order                    shell-resolved
        anisotropic                    true
        a3                             3.000000
        a5                             4.000000
        cn-shift                       1.200000
        cn-exp                         4.000000
        max-rad                        5.000000

      * Solvation model:               COSMO
        Solvent                        WATER
        Parameter file                 internal GFN2-xTB/ALPB+COSMO
        Dielectric constant                8.0200E+01
        Reference state                gsolv [1 M gas/solution]
        Free energy shift                  0.0000E+00 Eh       0.0000E+00 kcal/mol
        Temperature                        2.9815E+02 K
        Density                            1.0000E+00 kg/L
        Solvent mass                       1.8000E+01 g/mol
        vdW Radii scaling                  1.0000E+00
        Surface tension                    1.0000E-05 Eh       1.5569E+01 dyn/cm
        Grid points                               230 per atom
q/qsh data taken from xtbrestart
CAMM data taken from xtbrestart

          ...................................................
          :                      SETUP                      :
          :.................................................:
          :  # basis functions                  94          :
          :  # atomic orbitals                  94          :
          :  # shells                           54          :
          :  # electrons                       100          :
          :  max. iterations                   250          :
          :  Hamiltonian                  GFN2-xTB          :
          :  restarted?                       true          :
          :  GBSA solvation                   true          :
          :  PC potential                    false          :
          :  electronic temp.          300.0000000     K    :
          :  accuracy                    0.2000000          :
          :  -> integral cutoff          0.3198970E+02      :
          :  -> integral neglect         0.2000000E-08      :
          :  -> SCF convergence          0.2000000E-06 Eh   :
          :  -> wf. convergence          0.2000000E-04 e    :
          :  Broyden damping             0.4000000          :
          :  net charge                          0          :
          :  unpaired electrons                  0          :
          ...................................................

 iter      E             dE          RMSdq      gap      omega  full diag
   1    -56.2936333 -0.562936E+02  0.816E-04    2.56       0.0  T
   2    -56.2936342 -0.912023E-06  0.482E-04    2.56      35.6  T
   3    -56.2936346 -0.367208E-06  0.122E-04    2.56     140.3  T
   4    -56.2936347 -0.137701E-06  0.291E-05    2.56     589.4  T
   5    -56.2936346  0.151680E-06  0.134E-05    2.56    1281.6  T

   *** convergence criteria satisfied after 5 iterations ***

         #    Occupation            Energy/Eh            Energy/eV
      -------------------------------------------------------------
         1        2.0000           -0.7383838             -20.0924
       ...           ...                  ...                  ...
        44        2.0000           -0.4310388             -11.7292
        45        2.0000           -0.4241658             -11.5421
        46        2.0000           -0.4218716             -11.4797
        47        2.0000           -0.4043407             -11.0027
        48        2.0000           -0.3935859             -10.7100
        49        2.0000           -0.3866468             -10.5212
        50        2.0000           -0.3732821             -10.1575 (HOMO)
        51                         -0.2792576              -7.5990 (LUMO)
        52                         -0.2669265              -7.2634
        53                         -0.2302490              -6.2654
        54                         -0.2061164              -5.6087
        55                         -0.1889386              -5.1413
       ...                                ...                  ...
        94                          0.6978052              18.9882
      -------------------------------------------------------------
                  HL-Gap            0.0940245 Eh            2.5585 eV
             Fermi-level           -0.3262698 Eh           -8.8783 eV

 SCC (total)                   0 d,  0 h,  0 min,  0.256 sec
 SCC setup                      ...        0 min,  0.012 sec (  4.573%)
 Dispersion                     ...        0 min,  0.002 sec (  0.621%)
 classical contributions        ...        0 min,  0.000 sec (  0.022%)
 integral evaluation            ...        0 min,  0.010 sec (  4.100%)
 iterations                     ...        0 min,  0.181 sec ( 70.587%)
 molecular gradient             ...        0 min,  0.042 sec ( 16.331%)
 printout                       ...        0 min,  0.010 sec (  3.759%)

         :::::::::::::::::::::::::::::::::::::::::::::::::::::
         ::                     SUMMARY                     ::
         :::::::::::::::::::::::::::::::::::::::::::::::::::::
         :: total energy             -55.440860052511 Eh    ::
         :: total w/o Gsasa/hb       -55.437665796738 Eh    ::
         :: gradient norm              0.000086297170 Eh/a0 ::
         :: HOMO-LUMO gap              2.558536522785 eV    ::
         ::.................................................::
         :: SCC energy               -56.293260695084 Eh    ::
         :: -> isotropic ES            0.091692931024 Eh    ::
         :: -> anisotropic ES         -0.005681583367 Eh    ::
         :: -> anisotropic XC          0.026001760349 Eh    ::
         :: -> dispersion             -0.040283595928 Eh    ::
         :: -> Gsolv                  -0.023587289238 Eh    ::
         ::    -> Gelec               -0.020393033465 Eh    ::
         ::    -> Gsasa               -0.003194255773 Eh    ::
         ::    -> Ghb                  0.000000000000 Eh    ::
         ::    -> Gshift               0.000000000000 Eh    ::
         :: repulsion energy           0.852400642573 Eh    ::
         :: add. restraining           0.000000000000 Eh    ::
         :: total charge               0.000000000000 e     ::
         :::::::::::::::::::::::::::::::::::::::::::::::::::::


Property printout bound to 'properties.out'

           -------------------------------------------------
          | TOTAL ENERGY              -55.440860052511 Eh   |
          | GRADIENT NORM               0.000086297170 Eh/α |
          | HOMO-LUMO GAP               2.558536522785 eV   |
           -------------------------------------------------

------------------------------------------------------------------------
 * finished run on 2024/12/19 at 11:03:22.192     
------------------------------------------------------------------------
 total:
 * wall-time:     0 d,  0 h,  0 min,  0.401 sec
 *  cpu-time:     0 d,  0 h,  0 min,  0.212 sec
 * ratio c/w:     0.528 speedup
 SCF:
 * wall-time:     0 d,  0 h,  0 min,  0.265 sec
 *  cpu-time:     0 d,  0 h,  0 min,  0.196 sec
 * ratio c/w:     0.739 speedup


-------------------------   --------------------
FINAL SINGLE POINT ENERGY       -55.440860052510
-------------------------   --------------------


-------------
DIPOLE MOMENT
-------------
                                X             Y             Z
Total Dipole Moment    :      0.45100      -0.25800       1.17200
                        -----------------------------------------
Magnitude (a.u.)       :      1.28201
Magnitude (Debye)      :      3.25861

                                *** OPTIMIZATION RUN DONE ***

		     ------------------------------
			                   _   
			                  | |  
			  __ _  ___   __ _| |_ 
			 / _` |/ _ \ / _` | __|
			| (_| | (_) | (_| | |_ 
			 \__, |\___/ \__,_|\__|
			 __/ |                
			|___/                 

		      A Global Optimizer Algorithm
		     ------------------------------

Global parameters
-----------------
  GOAT version                               ... default
  Minimum global steps                       ... 3
  Number of base workers                     ... 4
  Split workers by                           ... 2
  Final number of workers                    ... 8
  Number of available CPUs                   ... 1
  Parameter list (worker : temperature)      ...  0 : 2903.97,  1 : 1451.98, 
                                                  2 :  725.99,  3 :  363.00, 
                                                  4 : 2903.97,  5 : 1451.98, 
                                                  6 :  725.99,  7 :  363.00 
  GradComp (mean : sigma)                    ... 1.00 : 0.50
  Number of fragments                        ... 1
  Number of atoms                            ... 34
  Flexibility parameter                      ... 0.19
  Optimizations per global step              ... 144
  Optimizations per worker                   ... 18

Filtering criteria
------------------
  RMSD                                       ... 0.125 Angs (atom. pos.)
  EnDiff                                     ... 0.100 kcal/mol
  RotConst                                   ... 1.00-2.50 %
  Maximum Conf. Energy                       ... 6.000 kcal/mol

Thermodynamics
--------------
  Ensemble temperature                       ... 298.15 K
  Degeneracy of conformers                   ... 1
  *No rotamers will be included in Gconf

------------------------------------------------------------------------------
   Iter  MinTemp     MaxEn       GradComp    NOpt   NProcs    Output
------------------------------------------------------------------------------
   0     2903.97    102.00    1.00 : 0.50      18        1    HBQ_GS-GOAT.goat.0.0.out
   1     1451.98    102.00    1.00 : 0.50      18        1    HBQ_GS-GOAT.goat.0.1.out
   2      725.99    102.00    1.00 : 0.50      18        1    HBQ_GS-GOAT.goat.0.2.out
   3      363.00    102.00    1.00 : 0.50      18        1    HBQ_GS-GOAT.goat.0.3.out
   4     2903.97    102.00    1.00 : 0.50      18        1    HBQ_GS-GOAT.goat.0.4.out
   5     1451.98    102.00    1.00 : 0.50      18        1    HBQ_GS-GOAT.goat.0.5.out
   6      725.99    102.00    1.00 : 0.50      18        1    HBQ_GS-GOAT.goat.0.6.out
   7      363.00    102.00    1.00 : 0.50      18        1    HBQ_GS-GOAT.goat.0.7.out

			     GOAT Global Iter 1
		Iter    Min En       Sconf       Gconf   
		        Hartree      cal/(molK)  kcal/mol
		=========================================

		   1    -55.440860   1.684       -0.373

   0     2903.97    102.00    1.00 : 0.50      18        1    HBQ_GS-GOAT.goat.1.0.out
   1     1451.98    102.00    1.00 : 0.50      18        1    HBQ_GS-GOAT.goat.1.1.out
   2      725.99    102.00    1.00 : 0.50      18        1    HBQ_GS-GOAT.goat.1.2.out
   3      363.00    102.00    1.00 : 0.50      18        1    HBQ_GS-GOAT.goat.1.3.out
   4     2903.97    102.00    1.00 : 0.50      18        1    HBQ_GS-GOAT.goat.1.4.out
   5     1451.98    102.00    1.00 : 0.50      18        1    HBQ_GS-GOAT.goat.1.5.out
   6      725.99    102.00    1.00 : 0.50      18        1    HBQ_GS-GOAT.goat.1.6.out
   7      363.00    102.00    1.00 : 0.50      18        1    HBQ_GS-GOAT.goat.1.7.out

			     GOAT Global Iter 2
		Iter    Min En       Sconf       Gconf   
		        Hartree      cal/(molK)  kcal/mol
		=========================================

		   1    -55.440860   1.684       -0.373
		   2    -55.440878   1.680       -0.371

   0     2903.97    102.00    1.00 : 0.50      18        1    HBQ_GS-GOAT.goat.2.0.out
   1     1451.98    102.00    1.00 : 0.50      18        1    HBQ_GS-GOAT.goat.2.1.out
   2      725.99    102.00    1.00 : 0.50      18        1    HBQ_GS-GOAT.goat.2.2.out
   3      363.00    102.00    1.00 : 0.50      18        1    HBQ_GS-GOAT.goat.2.3.out
   4     2903.97    102.00    1.00 : 0.50      18        1    HBQ_GS-GOAT.goat.2.4.out
   5     1451.98    102.00    1.00 : 0.50      18        1    HBQ_GS-GOAT.goat.2.5.out
   6      725.99    102.00    1.00 : 0.50      18        1    HBQ_GS-GOAT.goat.2.6.out
   7      363.00    102.00    1.00 : 0.50      18        1    HBQ_GS-GOAT.goat.2.7.out

			     GOAT Global Iter 3
		Iter    Min En       Sconf       Gconf   
		        Hartree      cal/(molK)  kcal/mol
		=========================================

		   1    -55.440860   1.684       -0.373
		   2    -55.440878   1.680       -0.371
		   3    -55.440883   2.078       -0.415

   0     2903.97    102.00    1.00 : 0.50      18        1    HBQ_GS-GOAT.goat.3.0.out
   1     1451.98    102.00    1.00 : 0.50      18        1    HBQ_GS-GOAT.goat.3.1.out
   2      725.99    102.00    1.00 : 0.50      18        1    HBQ_GS-GOAT.goat.3.2.out
   3      363.00    102.00    1.00 : 0.50      18        1    HBQ_GS-GOAT.goat.3.3.out
   4     2903.97    102.00    1.00 : 0.50      18        1    HBQ_GS-GOAT.goat.3.4.out
   5     1451.98    102.00    1.00 : 0.50      18        1    HBQ_GS-GOAT.goat.3.5.out
   6      725.99    102.00    1.00 : 0.50      18        1    HBQ_GS-GOAT.goat.3.6.out
   7      363.00    102.00    1.00 : 0.50      18        1    HBQ_GS-GOAT.goat.3.7.out

			     GOAT Global Iter 4
		Iter    Min En       Sconf       Gconf   
		        Hartree      cal/(molK)  kcal/mol
		=========================================

		   1    -55.440860   1.684       -0.373
		   2    -55.440878   1.680       -0.371
		   3    -55.440883   2.078       -0.415
		   4    -55.440883   2.207       -0.431

		Global minimum found!
		Writing structure to HBQ_GS-GOAT.globalminimum.xyz

		# Final ensemble info #
		Conformer     Energy     Degen.   % total   % cumul.  
		              (kcal/mol)
		------------------------------------------------------
		        0     0.000	     1      48.35      48.35
		        1     0.120	     1      39.51      87.87
		        2     1.130	     1       7.18      95.04
		        3     1.978	     1       1.72      96.76
		        4     2.008	     1       1.63      98.39
		        5     2.017	     1       1.61     100.00

		Conformers below 3 kcal/mol: 6
		Lowest energy conformer    : -55.440883 Eh
		Sconf at 298.15 K          :  2.21 cal/(molK)
		Gconf at 298.15 K          : -0.43 kcal/mol

		Writing final ensemble to HBQ_GS-GOAT.finalensemble.xyz

--------------------------------
SUGGESTED CITATIONS FOR THIS RUN
--------------------------------

Below you find a list of papers that are relevant to this ORCA run
We neither can nor want to force you to cite these papers, but we appreciate if you do
You receive ORCA, which is the product of decades of hard work by many enthusiastic individuals, for free
The only thing we kindly ask in return is that you cite our papers,
We deeply appreciate it, if you show your appreciation for ORCA by not just citing the generic ORCA reference.

Please note that relegating all ORCA citations to the supporting information does *not* help us.
SI sections are not indexed - citations you put there will not count into any citation statistics
But we need these citations in order to attract the funding resources that allow us to do what we are doing

Therefore, if you are a happy ORCA user, please consider citing a few of the papers listed below in the main body of your paper

In addition to the list printed below, the program has created the file HBQ_GS-GOAT.bibtex that contains the list in bibtex format
You can import this file easily into all common literature databanks and citation aid programs


List of essential papers. We consider these as the minimum necessary citations

  1. Bannwarth,C.; Ehlert,S.; Grimme,S.
     GFN2-xTB—An Accurate and Broadly Parametrized Self-Consistent Tight-Binding Quantum Chemical Method with Multipole Electrostatics and Density-Dependent Dispersion Contributions
     J. Chem. Theory Comput., 2019 15(3)1652-1671
     doi.org/10.1021/acs.jctc.8b01176
  2. Neese,F.
     Software update: the ORCA program system, version 5.0
     WIRES Comput. Molec. Sci., 2022 12(1)e1606
     doi.org/10.1002/wcms.1606

List of papers to cite with high priority. The work reported in these papers was absolutely
necessary for this run to complete.
Our perspective: the developers of density functionals and basis sets usually get cited in chemistry papers
Good! But without the algorithms to do something with them, the functionals or basis sets would not do anything.
Hence, in our opinion, the algorithm design and method developments papers are equally worthy of getting cited

  1. Bannwarth,C.; Caldeweyher,E.; Ehlert,S.; Hansen,A.; Pracht,P.; Seibert,J.; Spicher,S.; Grimme,S.
     Extended tight-binding quantum chemistry methods
     WIRES Comput. Molec. Sci., 2020 11(2)e1493
     doi.org/10.1002/wcms.1493

List of suggested additional citations. These are papers that are important in the 'surrounding' of 
of this run, or papers that preceded the highly important papers. If you like your results we are grateful for a citation.

  1. Neese,F.
     The ORCA program system
     WIRES Comput. Molec. Sci., 2012 2(1)73-78
     doi.org/10.1002/wcms.81
  2. Neese,F.
     Software update: the ORCA program system, version 4.0
     WIRES Comput. Molec. Sci., 2018 8(1)1-6
     doi.org/10.1002/wcms.1327
  3. Neese,F.; Wennmohs,F.; Becker,U.; Riplinger,C.
     The ORCA quantum chemistry program package
     J. Chem. Phys., 2020 152 Art. No. L224108
     doi.org/10.1063/5.0004608

List of optional additional citations

  1. Neese,F.
     Approximate second-order SCF convergence for spin unrestricted wavefunctions
     Chem. Phys. Lett., 2000 325(1-3)93-98
     doi.org/10.1016/s0009-2614(00)00662-x

Timings for individual modules:

Sum of individual times          ...    25399.937 sec (= 423.332 min)
Geometry relaxation              ...        0.976 sec (=   0.016 min)   0.0 %
GOAT                             ...    25382.339 sec (= 423.039 min)  99.9 %
XTB module                       ...       16.622 sec (=   0.277 min)   0.1 %
                             ****ORCA TERMINATED NORMALLY****
TOTAL RUN TIME: 0 days 7 hours 3 minutes 20 seconds 893 msec
