
                                 *****************
                                 * O   R   C   A *
                                 *****************

                                            #,                                       
                                            ###                                      
                                            ####                                     
                                            #####                                    
                                            ######                                   
                                           ########,                                 
                                     ,,################,,,,,                         
                               ,,#################################,,                 
                          ,,##########################################,,             
                       ,#########################################, ''#####,          
                    ,#############################################,,   '####,        
                  ,##################################################,,,,####,       
                ,###########''''           ''''###############################       
              ,#####''   ,,,,##########,,,,          '''####'''          '####       
            ,##' ,,,,###########################,,,                        '##       
           ' ,,###''''                  '''############,,,                           
         ,,##''                                '''############,,,,        ,,,,,,###''
      ,#''                                            '''#######################'''  
     '                                                          ''''####''''         
             ,#######,   #######,   ,#######,      ##                                
            ,#'     '#,  ##    ##  ,#'     '#,    #''#        ,####,   ,####,        
            ##       ##  ##   ,#'  ##            #'  '#       #'       #'  '#        
            ##       ##  #######   ##           ,######,      #####,   #    #        
            '#,     ,#'  ##    ##  '#,     ,#' ,#      #,     #,   #   #,  ,#        
             '#######'   ##     ##  '#######'  #'      '#     '####' # '####'        



                #########################################################
                #                        -***-                          #
                #          Department of theory and spectroscopy        #
                #                                                       #
                #                      Frank Neese                      #
                #                                                       #
                #     Directorship, Architecture, Infrastructure        #
                #                    SHARK, DRIVERS                     #
                #        Core code/Algorithms in most modules           #
                #                                                       #
                #        Max Planck Institute fuer Kohlenforschung      #
                #                Kaiser Wilhelm Platz 1                 #
                #                 D-45470 Muelheim/Ruhr                 #
                #                      Germany                          #
                #                                                       #
                #                  All rights reserved                  #
                #                        -***-                          #
                #########################################################


                         Program Version 6.0.1  -  RELEASE   -


 With contributions from (in alphabetic order):
[Max-Planck-Institut fuer Kohlenforschung]                               
  Daniel Aravena         : Magnetic Suceptibility                        
  Michael Atanasov       : Ab Initio Ligand Field Theory (pilot matlab implementation)
  Alexander A. Auer      : GIAO ZORA, VPT2 properties, NMR spectrum      
  Ute Becker             : All parallelization in ORCA, NUMFREQ, NUMCALC 
  Giovanni Bistoni       : ED, misc. LED, open-shell LED, HFLD           
  Martin Brehm           : Molecular dynamics                            
  Dmytro Bykov           : pre 5.0 version of the SCF Hessian            
  Marcos Casanova-Páez   : Triplet and SCS-CIS(D). UHF-(DLPNO)-IP/EA/STEOM-CCSD. UHF-CVS-IP/STEOM-CCSD   
  Vijay G. Chilkuri      : MRCI spin determinant printing, contributions to CSF-ICE 
  Pauline Colinet        : FMM embedding                                 
  Dipayan Datta          : RHF DLPNO-CCSD density                        
  Achintya Kumar Dutta   : EOM-CC, STEOM-CC                              
  Nicolas Foglia         : Exact transition moments, OPA infrastructure, MCD improvements    
  Dmitry Ganyushin       : Spin-Orbit,Spin-Spin,Magnetic field MRCI      
  Miquel Garcia-Rates    : C-PCM and meta-GGA Hessian, CCSD/C-PCM, Gaussian charge scheme 
  Tiago L. C. Gouveia    : GS-ROHF, GS-ROCIS                             
  Yang Guo               : DLPNO-NEVPT2, F12-NEVPT2, CIM, IAO-localization        
  Andreas Hansen         : Spin unrestricted coupled pair/coupled cluster methods 
  Ingolf Harden          : AUTO-CI MPn and infrastructure                
  Benjamin Helmich-Paris : MC-RPA, TRAH-(SCF,CASSCF), AVAS, COSX integrals, SCF dyn. polar. 
  Lee Huntington         : MR-EOM, pCC                                   
  Robert Izsak           : Overlap fitted RIJCOSX, COSX-SCS-MP3, EOM     
  Riya Kayal             : Wick's Theorem for AUTO-CI, AUTO-CI UHF-CCSDT 
  Emily Kempfer          : AUTO-CI, RHF CISDT and CCSDT                  
  Christian Kollmar      : KDIIS, OOCD, Brueckner-CCSD(T), CCSD density, CASPT2, CASPT2-K, improved NEVPT2 
  Axel Koslowski         : Symmetry handling                             
  Simone Kossmann        : meta-GGA functionals, TD-DFT gradient, OOMP2, (MP2 Hessian; deprecated post 5.0) 
  Lucas Lang             : DCDCAS                                        
  Marvin Lechner         : AUTO-CI (C++ implementation), FIC-MRCC        
  Spencer Leger          : CASSCF response                               
  Dagmar Lenk            : GEPOL surface, SMD, ORCA-2-JSON               
  Dimitrios Liakos       : Extrapolation schemes; Compound Job, initial MDCI parallelization 
  Dimitrios Manganas     : Further ROCIS development; embedding schemes. LFT, Crystal Embedding 
  Dimitrios Pantazis     : SARC Basis sets                               
  Anastasios Papadopoulos: AUTO-CI, single reference methods and gradients 
  Taras Petrenko         : pre 6.0 DFT Hessian and TD-DFT gradient, (ASA, deprecated), ECA, 1-Electron XAS/XES, NRVS 
  Peter Pinski           : DLPNO-MP2, DLPNO-MP2 Gradient                 
  Christoph Reimann      : Effective Core Potentials                     
  Marius Retegan         : Local ZFS, SOC                                
  Christoph Riplinger    : Optimizer, TS searches, QM/MM, DLPNO-CCSD(T), (RO)-DLPNO pert. Triples 
  Michael Roemelt        : Original ROCIS implementation                 
  Masaaki Saitow         : Open-shell DLPNO-CCSD energy and density      
  Barbara Sandhoefer     : DKH picture change effects                    
  Kantharuban Sivalingam : CASSCF convergence/infrastructure, NEVPT2 and variants, FIC-MRCI 
  Bernardo de Souza      : ESD, SOC TD-DFT                               
  Georgi L. Stoychev     : AutoAux, RI-MP2 NMR, DLPNO-MP2 response, X2C  
  Van Anh Tran           : RI-MP2 g-tensors                              
  Willem Van den Heuvel  : Paramagnetic NMR                              
  Zikuan Wang            : NOTCH, Electric field optimization            
  Frank Wennmohs         : Technical directorship and infrastructure     
  Hang Xu                : AUTO-CI-Response properties                   
                                                                         
[FACCTs GmbH]                                                            
  Markus Bursch, Miquel Garcia-Rates, Christoph Riplinger, Bernardo de Souza, Georgi L. Stoychev 
                                                                 
  APM, Basis sets (HGBS, AHGBS, def-TZVP (Ac-Lr), def2-XVPD (La-Lu)), CI-OPT, improved COSX, DLPNO-Multilevel,           
  DOCKER, DRACO, updates on ESD, GOAT, IRC, LR-CPCM, MBIS, meta-GGA TD-DFT gradient, ML-optimized integration grids, 
  MM, NACMEs, nearIR, NEB, NEB-TS, NL-DFT gradient (VV10), 2- and 3-layer-ONIOM, interface openCOSMO-RS, QMMM,   
  Crystal-QMMM, SF, symmetry and pop. for TD-DFT, r2SCAN hybrids, SOLVATOR                                   
                                                                         
[Other institutions]                                                     
  V. Asgeirsson          : NEB                                           
  Christoph Bannwarth    : sTDA-DFT, sTD-DFT, PBEh-3c, B97-3c, D3        
  Sebastian Ehlert       : rSCAN, r2SCAN, r2SCAN-3c, D4, dhf basis sets  
  Marvin Friede          : D4 for Fr, Ra, Ac-Lr                          
  Lars Goerigk           : TD-DFT with DH, B97 family of functionals     
  Stefan Grimme          : VdW corrections, initial TS optimization, DFT functionals, gCP, sTDA/sTD-DF 
  Waldemar Hujo          : DFT-NL                                        
  H. Jonsson             : NEB                                           
  Holger Kruse           : gCP                                           
  Marcel Mueller         : wB97X-3c, vDZP basis set                      
  Hagen Neugebauer       : wr2SCAN                                       
  Tobias Risthaus        : range-separated hybrid DFT                    
  Lukas Wittmann         : regularized MP2, r2SCAN double-hybrids, wr2SCAN        
                                                                         
We gratefully acknowledge several colleagues who have allowed us to      
interface, adapt or use parts of their codes:                            
  Ed Valeev, F. Pavosevic, A. Kumar             : LibInt (2-el integral package), F12 methods 
  Garnet Chan, S. Sharma, J. Yang, R. Olivares  : DMRG                   
  Ulf Ekstrom                                   : XCFun DFT Library      
  Mihaly Kallay                                 : mrcc  (arbitrary order and MRCC methods)
  Frank Weinhold                                : gennbo (NPA and NBO analysis)           
  Simon Mueller                                 : openCOSMO-RS                            
  Christopher J. Cramer and Donald G. Truhlar   : smd solvation model                     
  S Lehtola, MJT Oliveira, MAL Marques          : LibXC Library                           
  Liviu Ungur et al                             : ANISO software                          


 Your calculation uses the libint2 library for the computation of 2-el integrals
 For citations please refer to: http://libint.valeyev.net

 Your ORCA version has been built with support for libXC version: 6.2.2
 For citations please refer to: https://libxc.gitlab.io

 This ORCA versions uses:
   CBLAS   interface :  Fast vector & matrix operations
   LAPACKE interface :  Fast linear algebra routines
   SCALAPACK package :  Parallel linear algebra routines
   Shared memory     :  Shared parallel matrices
   BLAS/LAPACK       :  OpenBLAS 0.3.27  USE64BITINT DYNAMIC_ARCH NO_AFFINITY Zen SINGLE_THREADED
        Core in use  :  Zen
   Copyright (c) 2011-2014, The OpenBLAS Project


Warning: RI is on but no J-basis has been assigned. Assigning Def2/J (nothing to worry about!)
================================================================================

----- Orbital basis set information -----
Your calculation utilizes the basis: 6-311G*
   H, Li - Ne  : R. Krishnan, J. S. Binkley, R. Seeger and J. A. Pople, J. Chem. Phys. 72, 650 (1980).
   Na - Ar     : A. D. McLean and G. S. Chandler J. Chem. Phys. 72, 5639, (1980).
   K  - Ca     : J.-P. Blaudeau, M. P. McGrath, L. A. Curtiss and L. Radom, J. Chem. Phys. 107, 5016 (1997).
   Ga - Kr     : L. A. Curtiss, M. P. McGrath, J.-P. Blandeau, N. E. Davis, R. C. Binning and L. Radom, J. Chem. Phys. 103, 6104 (1995).
   Pol./Diff.
   H, Li - Cl  : T. Clark, J. Chandrasekhar and P. v. R. Schleyer, J. Comp. Chem. 4, 294 (1983).
   H - Ne      : M. J. Frisch, J. A. Pople and J. S. Binkley, J. Chem. Phys. 80, 3265 (1984).

----- AuxJ basis set information -----
Your calculation utilizes the auxiliary basis: def2/J
   F. Weigend, Phys. Chem. Chem. Phys. 8, 1057 (2006).

================================================================================
                                        WARNINGS
                       Please study these warnings very carefully!
================================================================================


WARNING: Geometry Optimization
  ===> : Switching off AutoStart
         For restart on a previous wavefunction, please use MOREAD

================================================================================
                                       INPUT FILE
================================================================================
NAME = 2.inp
|  1> ! B3LYP/G OPT FREQ 6-311G* CPCM(Water)
|  2> 
|  3> * xyz 1 1 
|  4> C  -3.50826778365067415422 -0.55810834317446533781 1.87638784590087581705
|  5> C  -3.37715416720992678279 -1.34513959819747497271 3.02137944914472278413
|  6> C  -2.16268312462759393355 -1.47267721282293995166 3.64864713714475552564
|  7> C  -2.44113951653983729528 0.18215776394936056271 1.41986677913919256966
|  8> C  -1.20575742695143195427 0.15829841227212604338 2.11390745090603093814
|  9> O  -2.42395829335864343435 0.84452503508583576242 0.21661231768203725867
| 10> C  -1.04900835017779225922 -0.75856044852038873039 3.18657349517717003451
| 11> C  0.25002252418371084808 -0.99051937451905902599 3.72624629964102060953
| 12> C  1.34914065032127217236 -0.42446501048002827083 3.17516155819326817422
| 13> C  -0.07980618289275875910 0.93606562049743091691 1.72079458224294024049
| 14> C  1.22021849752139388556 0.55210486945059678021 2.14669042124776332514
| 15> N  -0.20494800753728203979 2.05384518968924023596 0.95413650499391122750
| 16> C  0.86329982365897173224 2.61507996307314449780 0.37218342366273160504
| 17> C  2.14157936499525058949 2.15090199266162063196 0.59882315222777393604
| 18> C  2.32860894335197876615 1.17242045444253273345 1.55913910197590999118
| 19> C  -3.57185976260639792557 1.20906467216722157687 -0.45008413812867886783
| 20> O  -4.62784325082938075013 1.43300138081877959095 0.11850903873736184924
| 21> N  -3.36661963312235856804 1.30788314272076489075 -1.76013063302000727361
| 22> C  -2.09394744039885205567 1.05306831270474532403 -2.40196549647399226757
| 23> C  -4.40687673263563794990 1.83615307695802276733 -2.61612074455601550937
| 24> H  -4.05590616637942602551 2.74196466759732482288 -3.10953023600636324630
| 25> H  -5.28320528668383815329 2.06537852356170192891 -2.01396808714836295096
| 26> H  -4.67525736945234804409 1.09674512191446726916 -3.37097710328756772213
| 27> H  -2.28886496017812746118 0.63364548137092158164 -3.38708913034770731088
| 28> H  -1.51241388562173328936 0.34473333060170952002 -1.81919702748717071472
| 29> H  -1.53119579993238152937 1.98079920126759501109 -2.50884209437106697749
| 30> H  -2.04820424290437630432 -2.14018098990649274782 4.48746829039093597657
| 31> H  -4.44738505408998374691 -0.52863565590407168848 1.34760498547725826590
| 32> H  -4.23666217561358315891 -1.89084131673543720531 3.37650596081589071673
| 33> H  0.33641983145832132784 -1.68577139046611734763 4.54593207805320798087
| 34> H  2.34022317841109606107 -0.67641745461977609288 3.51574452697424177927
| 35> H  0.66070363866280068521 3.47443039054072233540 -0.24909875804771486330
| 36> H  2.97523538611317883706 2.60274135538654149968 0.08792085550744388467
| 37> H  3.32060931421314053935 0.88018760731900536065 1.86698646654169442272
| 38> P  -1.57708649047224502837 3.14567790033007543826 1.17630900903117763256
| 39> O  -2.54260486394447182690 2.71406369244178868882 2.18860091502204712199
| 40> O  -1.95370210162762392159 3.40933795082458246384 -0.32192663625902850910
| 41> O  -0.82498372483922988163 4.48647145659931023687 1.57610292089480408251
| 42> C  -2.53258005457578150299 4.65023467215297525712 -0.76773579935612046299
| 43> C  -0.67465774015262858221 4.86728104075011369645 2.94723141201676863687
| 44> C  -3.82884480360116441489 4.96125489032926747512 -0.04834201003988480849
| 45> H  -2.70127857185250430661 4.49925096601503149429 -1.83501656374781285663
| 46> H  -1.80889345226291009538 5.45345761534152106975 -0.61316434680225251341
| 47> H  -4.52161636768755492710 4.12495933876647136174 -0.12979401934872414337
| 48> H  -4.28821881406136284909 5.84681496510165921165 -0.47675642893763758856
| 49> H  -3.63920498576794315682 5.13426014970434607676 1.01039375546397480754
| 50> C  0.54105375732677707390 4.21210218767530886197 3.57498373268845792694
| 51> H  -1.58460830759661841505 4.59508530691958405612 3.49087067056461730630
| 52> H  -0.57241624234365062751 5.95386298208164799206 2.92826476774458832608
| 53> H  1.42742274410017389030 4.41192981783846960298 2.97879000546566574670
| 54> H  0.39083564026483230691 3.13764291937222061790 3.65616599720717205813
| 55> H  0.68797781228970356082 4.61749338781469553794 4.57165434038642271020
| 56> *
| 57> 
| 58>                          ****END OF INPUT****
================================================================================

                       *****************************
                       * Geometry Optimization Run *
                       *****************************

Geometry optimization settings:
Update method            Update   .... BFGS
Choice of coordinates    CoordSys .... (2022) Redundant Internals
Initial Hessian          InHess   .... Almloef's Model
Max. no of cycles        MaxIter  .... 156

Convergence Tolerances:
Energy Change            TolE     ....  5.0000e-06 Eh
Max. Gradient            TolMAXG  ....  3.0000e-04 Eh/bohr
RMS Gradient             TolRMSG  ....  1.0000e-04 Eh/bohr
Max. Displacement        TolMAXD  ....  4.0000e-03 bohr
RMS Displacement         TolRMSD  ....  2.0000e-03 bohr
Strict Convergence                .... False

------------------------------------------------------------------------------
                        ORCA OPTIMIZATION COORDINATE SETUP
------------------------------------------------------------------------------

The optimization will be done in redundant internal coordinates (2022)
Making redundant internal coordinates   ...  (2022 redundants) done
Evaluating the initial hessian          ...  (Almloef) done
Evaluating the coordinates              ...  done
Calculating the B-matrix                .... done
Calculating the G-matrix                .... done
Diagonalizing the G-matrix              .... done
Small eigenvalue found = 1.697e-03
Small eigenvalue found = 4.430e-03
Small eigenvalue found = 5.167e-03
Small eigenvalue found = 7.556e-03
Small eigenvalue found = 1.170e-02
Small eigenvalue found = 1.229e-02
Small eigenvalue found = 1.782e-02
Small eigenvalue found = 2.225e-02
Small eigenvalue found = 2.438e-02
Small eigenvalue found = 2.768e-02
The first mode is                       ....  109
The number of degrees of freedom        ....  150

    -----------------------------------------------------------------
                    Redundant Internal Coordinates


    -----------------------------------------------------------------
         Definition                    Initial Value    Approx d2E/dq
    -----------------------------------------------------------------
      1. B(C   1,C   0)                  1.3956         0.612142   
      2. B(C   2,C   1)                  1.3728         0.665468   
      3. B(C   3,C   0)                  1.3767         0.656200   
      4. B(C   4,C   3)                  1.4172         0.565401   
      5. B(O   5,C   3)                  1.3736         0.594292   
      6. B(C   6,C   4)                  1.4198         0.560022   
      7. B(C   6,C   2)                  1.4013         0.599309   
      8. B(C   7,C   6)                  1.4257         0.548063   
      9. B(C   8,C   7)                  1.3536         0.714246   
     10. B(C   9,C   4)                  1.4238         0.551826   
     11. B(C  10,C   9)                  1.4209         0.557807   
     12. B(C  10,C   8)                  1.4241         0.551230   
     13. B(N  11,C   9)                  1.3612         0.622056   
     14. B(C  12,N  11)                  1.3397         0.673161   
     15. B(C  13,C  12)                  1.3787         0.651269   
     16. B(C  14,C  13)                  1.3837         0.639436   
     17. B(C  14,C  10)                  1.3995         0.603417   
     18. B(C  15,O   5)                  1.3766         0.587815   
     19. B(O  16,C  15)                  1.2201         1.044729   
     20. B(N  17,C  15)                  1.3297         0.698353   
     21. B(C  18,N  17)                  1.4480         0.452283   
     22. B(C  19,N  17)                  1.4470         0.453809   
     23. B(H  20,C  19)                  1.0896         0.360690   
     24. B(H  21,C  19)                  1.0877         0.363160   
     25. B(H  22,C  19)                  1.0902         0.359821   
     26. B(H  23,C  18)                  1.0883         0.362368   
     27. B(H  24,C  18)                  1.0861         0.365342   
     28. B(H  25,C  18)                  1.0903         0.359678   
     29. B(H  26,C   2)                  1.0781         0.376199   
     30. B(H  27,C   0)                  1.0782         0.376113   
     31. B(H  28,C   1)                  1.0783         0.375961   
     32. B(H  29,C   7)                  1.0783         0.375919   
     33. B(H  30,C   8)                  1.0778         0.376562   
     34. B(H  31,C  12)                  1.0796         0.374134   
     35. B(H  32,C  13)                  1.0771         0.377564   
     36. B(H  33,C  14)                  1.0790         0.374954   
     37. B(P  34,N  11)                  1.7675         0.469912   
     38. B(O  35,P  34)                  1.4640         1.433281   
     39. B(O  36,P  34)                  1.5672         0.981033   
     40. B(O  37,P  34)                  1.5885         0.907259   
     41. B(C  38,O  36)                  1.4400         0.465656   
     42. B(C  39,O  37)                  1.4309         0.481447   
     43. B(C  40,C  38)                  1.5148         0.395055   
     44. B(H  41,H  20)                  2.5588         0.000313   
     45. B(H  41,C  38)                  1.0910         0.358742   
     46. B(H  42,C  38)                  1.0921         0.357273   
     47. B(H  43,C  40)                  1.0890         0.361403   
     48. B(H  44,C  40)                  1.0857         0.365812   
     49. B(H  45,C  40)                  1.0894         0.360881   
     50. B(C  46,C  39)                  1.5170         0.391850   
     51. B(H  47,C  39)                  1.0944         0.354366   
     52. B(H  48,C  39)                  1.0915         0.358060   
     53. B(H  49,C  46)                  1.0868         0.364424   
     54. B(H  50,C  46)                  1.0879         0.362832   
     55. B(H  51,C  46)                  1.0859         0.365502   
     56. A(C   1,C   0,C   3)          120.1656         0.437519   
     57. A(C   1,C   0,H  27)          119.9762         0.354752   
     58. A(C   3,C   0,H  27)          119.8583         0.358966   
     59. A(C   0,C   1,C   2)          120.6890         0.438627   
     60. A(C   0,C   1,H  28)          118.7334         0.354728   
     61. A(C   2,C   1,H  28)          120.5086         0.359799   
     62. A(C   1,C   2,H  26)          120.4618         0.359838   
     63. A(C   6,C   2,H  26)          119.1885         0.353495   
     64. A(C   1,C   2,C   6)          120.3343         0.436954   
     65. A(C   4,C   3,O   5)          115.2269         0.420963   
     66. A(C   0,C   3,O   5)          124.0197         0.432344   
     67. A(C   0,C   3,C   4)          120.2824         0.431309   
     68. A(C   6,C   4,C   9)          118.2973         0.417436   
     69. A(C   3,C   4,C   9)          123.0207         0.418147   
     70. A(C   3,C   4,C   6)          118.4966         0.419248   
     71. A(C   3,O   5,C  15)          122.7857         0.421141   
     72. A(C   4,C   6,C   7)          119.4494         0.416928   
     73. A(C   2,C   6,C   7)          121.0910         0.421999   
     74. A(C   2,C   6,C   4)          119.3709         0.423630   
     75. A(C   6,C   7,H  29)          117.7533         0.348154   
     76. A(C   6,C   7,C   8)          121.1798         0.435489   
     77. A(C   8,C   7,H  29)          120.9349         0.364163   
     78. A(C  10,C   8,H  30)          118.1477         0.348592   
     79. A(C   7,C   8,H  30)          121.3490         0.364269   
     80. A(C   7,C   8,C  10)          120.4834         0.435941   
     81. A(C   4,C   9,C  10)          119.5492         0.417142   
     82. A(C  10,C   9,N  11)          118.3491         0.423386   
     83. A(C   4,C   9,N  11)          122.0985         0.422571   
     84. A(C   9,C  10,C  14)          118.6215         0.423847   
     85. A(C   8,C  10,C  14)          122.3749         0.422950   
     86. A(C   8,C  10,C   9)          118.9868         0.417061   
     87. A(C   9,N  11,P  34)          120.5189         0.435624   
     88. A(C   9,N  11,C  12)          121.0216         0.435049   
     89. A(C  12,N  11,P  34)          114.5083         0.441874   
     90. A(N  11,C  12,H  31)          115.7095         0.357974   
     91. A(N  11,C  12,C  13)          121.7926         0.441563   
     92. A(C  13,C  12,H  31)          122.4514         0.358184   
     93. A(C  12,C  13,H  32)          119.8938         0.358740   
     94. A(C  12,C  13,C  14)          118.5216         0.440377   
     95. A(C  14,C  13,H  32)          121.4143         0.357623   
     96. A(C  10,C  14,H  33)          119.2299         0.353705   
     97. A(C  10,C  14,C  13)          119.8523         0.434360   
     98. A(C  13,C  14,H  33)          120.9174         0.357202   
     99. A(O  16,C  15,N  17)          125.3873         0.481387   
    100. A(O   5,C  15,N  17)          111.5995         0.433495   
    101. A(O   5,C  15,O  16)          122.9989         0.466378   
    102. A(C  18,N  17,C  19)          115.7148         0.383475   
    103. A(C  15,N  17,C  19)          119.9320         0.413900   
    104. A(C  15,N  17,C  18)          124.0077         0.413653   
    105. A(N  17,C  18,H  25)          110.3262         0.332639   
    106. A(H  23,C  18,H  24)          109.2848         0.291789   
    107. A(H  23,C  18,H  25)          109.3681         0.291073   
    108. A(N  17,C  18,H  24)          110.3378         0.333502   
    109. A(N  17,C  18,H  23)          108.1586         0.333050   
    110. A(H  24,C  18,H  25)          109.3404         0.291447   
    111. A(H  21,C  19,H  22)          109.1419         0.291191   
    112. A(H  20,C  19,H  22)          109.2441         0.290879   
    113. A(N  17,C  19,H  22)          109.8132         0.332846   
    114. A(H  20,C  19,H  21)          109.5740         0.291301   
    115. A(N  17,C  19,H  21)          109.1864         0.333357   
    116. A(N  17,C  19,H  20)          109.8658         0.332980   
    117. A(N  11,P  34,O  36)           99.8059         0.506536   
    118. A(N  11,P  34,O  35)          114.6313         0.543946   
    119. A(O  36,P  34,O  37)          102.2624         0.573576   
    120. A(O  35,P  34,O  37)          112.7734         0.616992   
    121. A(N  11,P  34,O  37)          100.6888         0.499213   
    122. A(O  35,P  34,O  36)          123.5148         0.626418   
    123. A(P  34,O  36,C  38)          122.5165         0.472483   
    124. A(P  34,O  37,C  39)          121.0333         0.468612   
    125. A(H  41,C  38,H  42)          110.0405         0.290307   
    126. A(C  40,C  38,H  42)          110.4151         0.326891   
    127. A(O  36,C  38,H  42)          108.8789         0.333879   
    128. A(C  40,C  38,H  41)          111.1416         0.327112   
    129. A(O  36,C  38,H  41)          104.2263         0.334106   
    130. A(O  36,C  38,C  40)          111.9567         0.378649   
    131. A(C  46,C  39,H  48)          111.2264         0.326571   
    132. A(O  37,C  39,H  48)          104.9576         0.335857   
    133. A(C  46,C  39,H  47)          110.6928         0.326014   
    134. A(O  37,C  39,H  47)          108.8113         0.335278   
    135. A(O  37,C  39,C  46)          111.4547         0.380306   
    136. A(H  47,C  39,H  48)          109.5182         0.289849   
    137. A(H  44,C  40,H  45)          109.1234         0.291659   
    138. A(H  43,C  40,H  45)          107.7809         0.291104   
    139. A(C  38,C  40,H  45)          110.1932         0.327432   
    140. A(H  43,C  40,H  44)          109.1289         0.291725   
    141. A(C  38,C  40,H  44)          110.0076         0.328166   
    142. A(C  38,C  40,H  43)          110.5595         0.327510   
    143. A(H  50,C  46,H  51)          108.5949         0.291868   
    144. A(H  49,C  46,H  51)          108.9359         0.292069   
    145. A(C  39,C  46,H  51)          109.0861         0.327679   
    146. A(H  49,C  46,H  50)          109.5817         0.291732   
    147. A(C  39,C  46,H  50)          110.2896         0.327284   
    148. A(C  39,C  46,H  49)          110.3158         0.327520   
    149. D(C   2,C   1,C   0,C   3)     -4.9380         0.025890   
    150. D(H  28,C   1,C   0,H  27)     -1.8998         0.025890   
    151. D(C   2,C   1,C   0,H  27)    175.0960         0.025890   
    152. D(H  28,C   1,C   0,C   3)    178.0663         0.025890   
    153. D(C   6,C   2,C   1,H  28)   -179.8015         0.030940   
    154. D(H  26,C   2,C   1,C   0)   -175.3033         0.030940   
    155. D(C   6,C   2,C   1,C   0)      3.2562         0.030940   
    156. D(H  26,C   2,C   1,H  28)      1.6390         0.030940   
    157. D(C   4,C   3,C   0,H  27)    179.5026         0.030022   
    158. D(O   5,C   3,C   0,C   1)    171.2776         0.030022   
    159. D(O   5,C   3,C   0,H  27)     -8.7563         0.030022   
    160. D(C   4,C   3,C   0,C   1)     -0.4634         0.030022   
    161. D(C   6,C   4,C   3,O   5)   -165.1489         0.021914   
    162. D(C   9,C   4,C   3,C   0)   -177.7505         0.021914   
    163. D(C   6,C   4,C   3,C   0)      7.2883         0.021914   
    164. D(C   9,C   4,C   3,O   5)      9.8123         0.021914   
    165. D(C  15,O   5,C   3,C   4)   -165.9390         0.025763   
    166. D(C  15,O   5,C   3,C   0)     21.9425         0.025763   
    167. D(C   7,C   6,C   4,C   9)     -7.4648         0.021483   
    168. D(C   2,C   6,C   4,C   9)    175.9221         0.021483   
    169. D(C   2,C   6,C   4,C   3)     -8.8757         0.021483   
    170. D(C   7,C   6,C   4,C   3)    167.7375         0.021483   
    171. D(C   7,C   6,C   2,H  26)      5.7430         0.024757   
    172. D(C   4,C   6,C   2,H  26)   -177.7011         0.024757   
    173. D(C   4,C   6,C   2,C   1)      3.7212         0.024757   
    174. D(C   7,C   6,C   2,C   1)   -172.8348         0.024757   
    175. D(H  29,C   7,C   6,C   4)    179.4807         0.020543   
    176. D(H  29,C   7,C   6,C   2)     -3.9660         0.020543   
    177. D(C   8,C   7,C   6,C   4)     -4.6597         0.020543   
    178. D(C   8,C   7,C   6,C   2)    171.8936         0.020543   
    179. D(C  10,C   8,C   7,C   6)      8.0233         0.036055   
    180. D(H  30,C   8,C   7,H  29)      2.0983         0.036055   
    181. D(H  30,C   8,C   7,C   6)   -173.6297         0.036055   
    182. D(C  10,C   8,C   7,H  29)   -176.2487         0.036055   
    183. D(N  11,C   9,C   4,C   6)   -163.1986         0.020836   
    184. D(N  11,C   9,C   4,C   3)     21.8307         0.020836   
    185. D(C  10,C   9,C   4,C   6)     16.1462         0.020836   
    186. D(C  10,C   9,C   4,C   3)   -158.8245         0.020836   
    187. D(C  14,C  10,C   9,N  11)    -12.1965         0.021307   
    188. D(C  14,C  10,C   9,C   4)    168.4342         0.021307   
    189. D(C   8,C  10,C   9,N  11)    166.3496         0.021307   
    190. D(C   8,C  10,C   9,C   4)    -13.0197         0.021307   
    191. D(C  14,C  10,C   8,H  30)      0.9304         0.020790   
    192. D(C  14,C  10,C   8,C   7)    179.3294         0.020790   
    193. D(C   9,C  10,C   8,H  30)   -177.5584         0.020790   
    194. D(C   9,C  10,C   8,C   7)      0.8406         0.020790   
    195. D(P  34,N  11,C   9,C  10)   -142.1172         0.031350   
    196. D(P  34,N  11,C   9,C   4)     37.2352         0.031350   
    197. D(C  12,N  11,C   9,C  10)     14.2893         0.031350   
    198. D(C  12,N  11,C   9,C   4)   -166.3584         0.031350   
    199. D(H  31,C  12,N  11,P  34)    -24.6706         0.037216   
    200. D(H  31,C  12,N  11,C   9)    177.5973         0.037216   
    201. D(C  13,C  12,N  11,P  34)    152.9056         0.037216   
    202. D(C  13,C  12,N  11,C   9)     -4.8265         0.037216   
    203. D(H  32,C  13,C  12,H  31)     -4.7457         0.029540   
    204. D(H  32,C  13,C  12,N  11)    177.8424         0.029540   
    205. D(C  14,C  13,C  12,H  31)    170.5794         0.029540   
    206. D(C  14,C  13,C  12,N  11)     -6.8325         0.029540   
    207. D(C  10,C  14,C  13,C  12)      8.4671         0.028405   
    208. D(H  33,C  14,C  10,C   9)   -179.2964         0.025117   
    209. D(H  33,C  14,C  10,C   8)      2.2095         0.025117   
    210. D(C  13,C  14,C  10,C   9)      0.9136         0.025117   
    211. D(C  13,C  14,C  10,C   8)   -177.5805         0.025117   
    212. D(H  33,C  14,C  13,H  32)      3.9314         0.028405   
    213. D(H  33,C  14,C  13,C  12)   -171.3193         0.028405   
    214. D(C  10,C  14,C  13,H  32)   -176.2822         0.028405   
    215. D(N  17,C  15,O   5,C   3)   -153.8157         0.025170   
    216. D(O  16,C  15,O   5,C   3)     27.4909         0.025170   
    217. D(C  19,N  17,C  15,O  16)      6.1213         0.040339   
    218. D(C  19,N  17,C  15,O   5)   -172.5346         0.040339   
    219. D(C  18,N  17,C  15,O  16)    179.0752         0.040339   
    220. D(C  18,N  17,C  15,O   5)      0.4193         0.040339   
    221. D(H  25,C  18,N  17,C  15)    -93.3328         0.017453   
    222. D(H  24,C  18,N  17,C  19)   -159.1813         0.017453   
    223. D(H  24,C  18,N  17,C  15)     27.5949         0.017453   
    224. D(H  23,C  18,N  17,C  19)    -39.6925         0.017453   
    225. D(H  23,C  18,N  17,C  15)    147.0837         0.017453   
    226. D(H  22,C  19,N  17,C  15)   -121.3870         0.017572   
    227. D(H  21,C  19,N  17,C  18)   -175.2759         0.017572   
    228. D(H  21,C  19,N  17,C  15)     -1.7564         0.017572   
    229. D(H  20,C  19,N  17,C  18)    -55.0837         0.017572   
    230. D(H  20,C  19,N  17,C  15)    118.4358         0.017572   
    231. D(O  37,P  34,N  11,C   9)    119.2531         0.004946   
    232. D(O  36,P  34,N  11,C  12)     65.9928         0.004946   
    233. D(O  36,P  34,N  11,C   9)   -136.1530         0.004946   
    234. D(O  35,P  34,N  11,C  12)   -159.9263         0.004946   
    235. D(O  35,P  34,N  11,C   9)     -2.0721         0.004946   
    236. D(C  38,O  36,P  34,O  37)    -45.9149         0.016526   
    237. D(C  38,O  36,P  34,O  35)     82.3323         0.016526   
    238. D(C  38,O  36,P  34,N  11)   -149.2229         0.016526   
    239. D(C  39,O  37,P  34,O  36)    160.0397         0.014195   
    240. D(C  39,O  37,P  34,O  35)     25.2858         0.014195   
    241. D(C  39,O  37,P  34,N  11)    -97.3459         0.014195   
    242. D(H  42,C  38,O  36,P  34)     64.4006         0.017087   
    243. D(H  41,C  38,O  36,P  34)   -178.1914         0.017087   
    244. D(C  40,C  38,O  36,P  34)    -57.9666         0.017087   
    245. D(H  48,C  39,O  37,P  34)   -154.4943         0.018288   
    246. D(H  47,C  39,O  37,P  34)    -37.3428         0.018288   
    247. D(C  46,C  39,O  37,P  34)     84.9987         0.018288   
    248. D(H  44,C  40,C  38,H  42)     64.2195         0.012394   
    249. D(H  44,C  40,C  38,H  41)    -58.1901         0.012394   
    250. D(H  44,C  40,C  38,O  36)   -174.2935         0.012394   
    251. D(H  43,C  40,C  38,H  42)   -175.1810         0.012394   
    252. D(H  43,C  40,C  38,H  41)     62.4094         0.012394   
    253. D(H  43,C  40,C  38,O  36)    -53.6940         0.012394   
    254. D(H  50,C  46,C  39,H  48)    175.6474         0.012202   
    255. D(H  50,C  46,C  39,H  47)     53.6521         0.012202   
    256. D(H  50,C  46,C  39,O  37)    -67.5995         0.012202   
    257. D(H  49,C  46,C  39,H  48)    -63.1613         0.012202   
    258. D(H  49,C  46,C  39,H  47)    174.8434         0.012202   
    259. D(H  49,C  46,C  39,O  37)     53.5918         0.012202   
    -----------------------------------------------------------------

Number of atoms                         .... 52
Number of degrees of freedom            .... 259


         *************************************************************
         *                GEOMETRY OPTIMIZATION CYCLE   1            *
         *************************************************************
---------------------------------
CARTESIAN COORDINATES (ANGSTROEM)
---------------------------------
  C     -3.508268   -0.558108    1.876388
  C     -3.377154   -1.345140    3.021379
  C     -2.162683   -1.472677    3.648647
  C     -2.441140    0.182158    1.419867
  C     -1.205757    0.158298    2.113907
  O     -2.423958    0.844525    0.216612
  C     -1.049008   -0.758560    3.186573
  C      0.250023   -0.990519    3.726246
  C      1.349141   -0.424465    3.175162
  C     -0.079806    0.936066    1.720795
  C      1.220218    0.552105    2.146690
  N     -0.204948    2.053845    0.954137
  C      0.863300    2.615080    0.372183
  C      2.141579    2.150902    0.598823
  C      2.328609    1.172420    1.559139
  C     -3.571860    1.209065   -0.450084
  O     -4.627843    1.433001    0.118509
  N     -3.366620    1.307883   -1.760131
  C     -2.093947    1.053068   -2.401965
  C     -4.406877    1.836153   -2.616121
  H     -4.055906    2.741965   -3.109530
  H     -5.283205    2.065379   -2.013968
  H     -4.675257    1.096745   -3.370977
  H     -2.288865    0.633645   -3.387089
  H     -1.512414    0.344733   -1.819197
  H     -1.531196    1.980799   -2.508842
  H     -2.048204   -2.140181    4.487468
  H     -4.447385   -0.528636    1.347605
  H     -4.236662   -1.890841    3.376506
  H      0.336420   -1.685771    4.545932
  H      2.340223   -0.676417    3.515745
  H      0.660704    3.474430   -0.249099
  H      2.975235    2.602741    0.087921
  H      3.320609    0.880188    1.866986
  P     -1.577086    3.145678    1.176309
  O     -2.542605    2.714064    2.188601
  O     -1.953702    3.409338   -0.321927
  O     -0.824984    4.486471    1.576103
  C     -2.532580    4.650235   -0.767736
  C     -0.674658    4.867281    2.947231
  C     -3.828845    4.961255   -0.048342
  H     -2.701279    4.499251   -1.835017
  H     -1.808893    5.453458   -0.613164
  H     -4.521616    4.124959   -0.129794
  H     -4.288219    5.846815   -0.476756
  H     -3.639205    5.134260    1.010394
  C      0.541054    4.212102    3.574984
  H     -1.584608    4.595085    3.490871
  H     -0.572416    5.953863    2.928265
  H      1.427423    4.411930    2.978790
  H      0.390836    3.137643    3.656166
  H      0.687978    4.617493    4.571654

----------------------------
CARTESIAN COORDINATES (A.U.)
----------------------------
  NO LB      ZA    FRAG     MASS         X           Y           Z
   0 C     6.0000    0    12.011   -6.629665   -1.054672    3.545859
   1 C     6.0000    0    12.011   -6.381896   -2.541945    5.709580
   2 C     6.0000    0    12.011   -4.086879   -2.782957    6.894944
   3 C     6.0000    0    12.011   -4.613085    0.344228    2.683159
   4 C     6.0000    0    12.011   -2.278551    0.299141    3.994706
   5 O     8.0000    0    15.999   -4.580617    1.595921    0.409338
   6 C     6.0000    0    12.011   -1.982338   -1.433472    6.021751
   7 C     6.0000    0    12.011    0.472474   -1.871810    7.041585
   8 C     6.0000    0    12.011    2.549506   -0.802123    6.000186
   9 C     6.0000    0    12.011   -0.150812    1.768908    3.251830
  10 C     6.0000    0    12.011    2.305879    1.043327    4.056657
  11 N     7.0000    0    14.007   -0.387296    3.881205    1.803057
  12 C     6.0000    0    12.011    1.631400    4.941785    0.703325
  13 C     6.0000    0    12.011    4.046998    4.064616    1.131612
  14 C     6.0000    0    12.011    4.400433    2.215554    2.946346
  15 C     6.0000    0    12.011   -6.749837    2.284801   -0.850536
  16 O     8.0000    0    15.999   -8.745356    2.707980    0.223950
  17 N     7.0000    0    14.007   -6.361989    2.471541   -3.326165
  18 C     6.0000    0    12.011   -3.956987    1.990011   -4.539057
  19 C     6.0000    0    12.011   -8.327790    3.469826   -4.943752
  20 H     1.0000    0     1.008   -7.664552    5.181562   -5.876161
  21 H     1.0000    0     1.008   -9.983811    3.903000   -3.805848
  22 H     1.0000    0     1.008   -8.834956    2.072548   -6.370224
  23 H     1.0000    0     1.008   -4.325328    1.197416   -6.400671
  24 H     1.0000    0     1.008   -2.858048    0.651452   -3.437784
  25 H     1.0000    0     1.008   -2.893541    3.743168   -4.741024
  26 H     1.0000    0     1.008   -3.870545   -4.044356    8.480086
  27 H     1.0000    0     1.008   -8.404340   -0.998977    2.546604
  28 H     1.0000    0     1.008   -8.006131   -3.573172    6.380672
  29 H     1.0000    0     1.008    0.635741   -3.185646    8.590567
  30 H     1.0000    0     1.008    4.422381   -1.278244    6.643794
  31 H     1.0000    0     1.008    1.248549    6.565722   -0.470728
  32 H     1.0000    0     1.008    5.622380    4.918468    0.166146
  33 H     1.0000    0     1.008    6.275042    1.663314    3.528093
  34 P    15.0000    0    30.974   -2.980262    5.944470    2.222902
  35 O     8.0000    0    15.999   -4.804827    5.128837    4.135856
  36 O     8.0000    0    15.999   -3.691962    6.442715   -0.608353
  37 O     8.0000    0    15.999   -1.558993    8.478202    2.978403
  38 C     6.0000    0    12.011   -4.785883    8.787670   -1.450810
  39 C     6.0000    0    12.011   -1.274918    9.197828    5.569460
  40 C     6.0000    0    12.011   -7.235468    9.375413   -0.091353
  41 H     1.0000    0     1.008   -5.104677    8.502352   -3.467679
  42 H     1.0000    0     1.008   -3.418313   10.305541   -1.158713
  43 H     1.0000    0     1.008   -8.544617    7.795043   -0.245275
  44 H     1.0000    0     1.008   -8.103559   11.048879   -0.900939
  45 H     1.0000    0     1.008   -6.877101    9.702346    1.909367
  46 C     6.0000    0    12.011    1.022443    7.959720    6.755740
  47 H     1.0000    0     1.008   -2.994476    8.683453    6.596790
  48 H     1.0000    0     1.008   -1.081710   11.251170    5.533618
  49 H     1.0000    0     1.008    2.697438    8.337339    5.629097
  50 H     1.0000    0     1.008    0.738572    5.929286    6.909152
  51 H     1.0000    0     1.008    1.300090    8.725798    8.639175

--------------------------------
INTERNAL COORDINATES (ANGSTROEM)
--------------------------------
 C      0   0   0     0.000000000000     0.00000000     0.00000000
 C      1   0   0     1.395569685934     0.00000000     0.00000000
 C      2   1   0     1.372833022922   120.68904250     0.00000000
 C      1   2   3     1.376651056812   120.16557258   355.06204522
 C      4   1   2     1.417191105675   120.28240200   359.53657535
 O      4   1   2     1.373625456709   124.01967200   171.27763061
 C      3   2   1     1.401337328021   120.33428746     3.25616121
 C      7   3   2     1.425669278540   121.09098370   187.16522444
 C      8   7   3     1.353577700211   121.17975868   171.89362200
 C      5   4   1     1.423806785240   123.02067489   182.24946420
 C     10   5   4     1.420872018766   119.54918258   201.17550784
 N     10   5   4     1.361196623927   122.09854730    21.83072816
 C     12  10   5     1.339704179504   121.02160889   193.64163416
 C     13  12  10     1.378704225198   121.79255732   355.17349970
 C     14  13  12     1.383695380912   118.52161659   353.16750059
 C      6   4   1     1.376608547952   122.78565699    21.94247846
 O     16   6   4     1.220060235259   122.99893390    27.49085626
 N     16   6   4     1.329703132150   111.59953779   206.18432667
 C     18  16   6     1.447956180163   124.00766062     0.41928532
 C     18  16   6     1.447039400830   119.93196898   187.46538644
 H     20  18  16     1.089553992406   109.86581034   118.43578844
 H     20  18  16     1.087696585834   109.18638895   358.24364712
 H     20  18  16     1.090211177945   109.81319353   238.61296369
 H     19  18  16     1.088290827388   108.15863694   147.08373229
 H     19  18  16     1.086065748768   110.33777095    27.59489644
 H     19  18  16     1.090319502540   110.32617959   266.66716404
 H      3   2   1     1.078094445730   120.46179966   184.69666692
 H      1   2   3     1.078156389588   119.97615938   175.09602219
 H      2   1   3     1.078266767278   118.73340292   183.00421045
 H      8   7   3     1.078297099928   117.75328103   356.03402076
 H      9   8   7     1.077831791244   121.34902530   186.37025565
 H     13  12  10     1.079592478982   115.70946868   177.59734276
 H     14  13  12     1.077108317695   119.89375294   177.84244334
 H     15  14  13     1.078997114267   120.91743484   188.68067564
 P     12  10   5     1.767547257056   120.51887987    37.23517243
 O     35  12  10     1.463984787113   114.63126540   357.92790657
 O     35  12  10     1.567184095635    99.80592173   223.84702106
 O     35  12  10     1.588465014588   100.68883938   119.25308340
 C     37  35  12     1.440024363445   122.51649089   210.77711593
 C     38  35  12     1.430946253435   121.03325825   262.65412725
 C     39  37  35     1.514781601350   111.95674630   302.03339224
 H     39  37  35     1.091028642745   104.22632860   181.80857114
 H     39  37  35     1.092145470519   108.87886064    64.40063231
 H     41  39  37     1.089016583616   110.55951023   306.30602304
 H     41  39  37     1.085716372648   110.00758162   185.70646166
 H     41  39  37     1.089410621132   110.19315416    65.34859824
 C     40  38  35     1.516999258645   111.45470957    84.99866094
 H     40  38  35     1.094369314327   108.81130545   322.65719970
 H     40  38  35     1.091546321828   104.95761419   205.50570425
 H     47  40  38     1.086751131985   110.31577878    53.59177195
 H     47  40  38     1.087942444254   110.28956652   292.40048485
 H     47  40  38     1.085947053648   109.08613569   173.21310014

---------------------------
INTERNAL COORDINATES (A.U.)
---------------------------
 C      0   0   0     0.000000000000     0.00000000     0.00000000
 C      1   0   0     2.637244507218     0.00000000     0.00000000
 C      2   1   0     2.594278440925   120.68904250     0.00000000
 C      1   2   3     2.601493479347   120.16557258   355.06204522
 C      4   1   2     2.678103069155   120.28240200   359.53657535
 O      4   1   2     2.595775923763   124.01967200   171.27763061
 C      3   2   1     2.648143771201   120.33428746     3.25616121
 C      7   3   2     2.694124493986   121.09098370   187.16522444
 C      8   7   3     2.557891154382   121.17975868   171.89362200
 C      5   4   1     2.690604891723   123.02067489   182.24946420
 C     10   5   4     2.685058986819   119.54918258   201.17550784
 N     10   5   4     2.572288833639   122.09854730    21.83072816
 C     12  10   5     2.531673999733   121.02160889   193.64163416
 C     13  12  10     2.605373405304   121.79255732   355.17349970
 C     14  13  12     2.614805322695   118.52161659   353.16750059
 C      6   4   1     2.601413149245   122.78565699    21.94247846
 O     16   6   4     2.305579711527   122.99893390    27.49085626
 N     16   6   4     2.512774759181   111.59953779   206.18432667
 C     18  16   6     2.736240634427   124.00766062     0.41928532
 C     18  16   6     2.734508172562   119.93196898   187.46538644
 H     20  18  16     2.058958653768   109.86581034   118.43578844
 H     20  18  16     2.055448664027   109.18638895   358.24364712
 H     20  18  16     2.060200554457   109.81319353   238.61296369
 H     19  18  16     2.056571617822   108.15863694   147.08373229
 H     19  18  16     2.052366828604   110.33777095    27.59489644
 H     19  18  16     2.060405258274   110.32617959   266.66716404
 H      3   2   1     2.037303248932   120.46179966   184.69666692
 H      1   2   3     2.037420305859   119.97615938   175.09602219
 H      2   1   3     2.037628889465   118.73340292   183.00421045
 H      8   7   3     2.037686209866   117.75328103   356.03402076
 H      9   8   7     2.036806903885   121.34902530   186.37025565
 H     13  12  10     2.040134121517   115.70946868   177.59734276
 H     14  13  12     2.035439737012   119.89375294   177.84244334
 H     15  14  13     2.039009045256   120.91743484   188.68067564
 P     12  10   5     3.340180244600   120.51887987    37.23517243
 O     35  12  10     2.766530311870   114.63126540   357.92790657
 O     35  12  10     2.961548742187    99.80592173   223.84702106
 O     35  12  10     3.001763850886   100.68883938   119.25308340
 C     37  35  12     2.721251673085   122.51649089   210.77711593
 C     38  35  12     2.704096531353   121.03325825   262.65412725
 C     39  37  35     2.862522379253   111.95674630   302.03339224
 H     39  37  35     2.061745339053   104.22632860   181.80857114
 H     39  37  35     2.063855837684   108.87886064    64.40063231
 H     41  39  37     2.057943098333   110.55951023   306.30602304
 H     41  39  37     2.051706603420   110.00758162   185.70646166
 H     41  39  37     2.058687721325   110.19315416    65.34859824
 C     40  38  35     2.866713144200   111.45470957    84.99866094
 H     40  38  35     2.068058293446   108.81130545   322.65719970
 H     40  38  35     2.062723610745   104.95761419   205.50570425
 H     47  40  38     2.053662015180   110.31577878    53.59177195
 H     47  40  38     2.055913269108   110.28956652   292.40048485
 H     47  40  38     2.052142527333   109.08613569   173.21310014

---------------------
BASIS SET INFORMATION
---------------------
There are 5 groups of distinct atoms

 Group   1 Type C   : 11s5p1d contracted to 4s3p1d pattern {6311/311/1}
 Group   2 Type O   : 11s5p1d contracted to 4s3p1d pattern {6311/311/1}
 Group   3 Type N   : 11s5p1d contracted to 4s3p1d pattern {6311/311/1}
 Group   4 Type H   : 5s contracted to 3s pattern {311}
 Group   5 Type P   : 13s9p1d contracted to 6s5p1d pattern {631111/42111/1}

Atom   0C    basis set group =>   1
Atom   1C    basis set group =>   1
Atom   2C    basis set group =>   1
Atom   3C    basis set group =>   1
Atom   4C    basis set group =>   1
Atom   5O    basis set group =>   2
Atom   6C    basis set group =>   1
Atom   7C    basis set group =>   1
Atom   8C    basis set group =>   1
Atom   9C    basis set group =>   1
Atom  10C    basis set group =>   1
Atom  11N    basis set group =>   3
Atom  12C    basis set group =>   1
Atom  13C    basis set group =>   1
Atom  14C    basis set group =>   1
Atom  15C    basis set group =>   1
Atom  16O    basis set group =>   2
Atom  17N    basis set group =>   3
Atom  18C    basis set group =>   1
Atom  19C    basis set group =>   1
Atom  20H    basis set group =>   4
Atom  21H    basis set group =>   4
Atom  22H    basis set group =>   4
Atom  23H    basis set group =>   4
Atom  24H    basis set group =>   4
Atom  25H    basis set group =>   4
Atom  26H    basis set group =>   4
Atom  27H    basis set group =>   4
Atom  28H    basis set group =>   4
Atom  29H    basis set group =>   4
Atom  30H    basis set group =>   4
Atom  31H    basis set group =>   4
Atom  32H    basis set group =>   4
Atom  33H    basis set group =>   4
Atom  34P    basis set group =>   5
Atom  35O    basis set group =>   2
Atom  36O    basis set group =>   2
Atom  37O    basis set group =>   2
Atom  38C    basis set group =>   1
Atom  39C    basis set group =>   1
Atom  40C    basis set group =>   1
Atom  41H    basis set group =>   4
Atom  42H    basis set group =>   4
Atom  43H    basis set group =>   4
Atom  44H    basis set group =>   4
Atom  45H    basis set group =>   4
Atom  46C    basis set group =>   1
Atom  47H    basis set group =>   4
Atom  48H    basis set group =>   4
Atom  49H    basis set group =>   4
Atom  50H    basis set group =>   4
Atom  51H    basis set group =>   4
---------------------------------
AUXILIARY/J BASIS SET INFORMATION
---------------------------------
There are 5 groups of distinct atoms

 Group   1 Type C   : 12s5p4d2f1g contracted to 6s4p3d1f1g pattern {711111/2111/211/2/1}
 Group   2 Type O   : 12s5p4d2f1g contracted to 6s4p3d1f1g pattern {711111/2111/211/2/1}
 Group   3 Type N   : 12s5p4d2f1g contracted to 6s4p3d1f1g pattern {711111/2111/211/2/1}
 Group   4 Type H   : 5s2p1d contracted to 3s1p1d pattern {311/2/1}
 Group   5 Type P   : 14s5p5d2f1g contracted to 8s4p3d1f1g pattern {71111111/2111/311/2/1}

Atom   0C    basis set group =>   1
Atom   1C    basis set group =>   1
Atom   2C    basis set group =>   1
Atom   3C    basis set group =>   1
Atom   4C    basis set group =>   1
Atom   5O    basis set group =>   2
Atom   6C    basis set group =>   1
Atom   7C    basis set group =>   1
Atom   8C    basis set group =>   1
Atom   9C    basis set group =>   1
Atom  10C    basis set group =>   1
Atom  11N    basis set group =>   3
Atom  12C    basis set group =>   1
Atom  13C    basis set group =>   1
Atom  14C    basis set group =>   1
Atom  15C    basis set group =>   1
Atom  16O    basis set group =>   2
Atom  17N    basis set group =>   3
Atom  18C    basis set group =>   1
Atom  19C    basis set group =>   1
Atom  20H    basis set group =>   4
Atom  21H    basis set group =>   4
Atom  22H    basis set group =>   4
Atom  23H    basis set group =>   4
Atom  24H    basis set group =>   4
Atom  25H    basis set group =>   4
Atom  26H    basis set group =>   4
Atom  27H    basis set group =>   4
Atom  28H    basis set group =>   4
Atom  29H    basis set group =>   4
Atom  30H    basis set group =>   4
Atom  31H    basis set group =>   4
Atom  32H    basis set group =>   4
Atom  33H    basis set group =>   4
Atom  34P    basis set group =>   5
Atom  35O    basis set group =>   2
Atom  36O    basis set group =>   2
Atom  37O    basis set group =>   2
Atom  38C    basis set group =>   1
Atom  39C    basis set group =>   1
Atom  40C    basis set group =>   1
Atom  41H    basis set group =>   4
Atom  42H    basis set group =>   4
Atom  43H    basis set group =>   4
Atom  44H    basis set group =>   4
Atom  45H    basis set group =>   4
Atom  46C    basis set group =>   1
Atom  47H    basis set group =>   4
Atom  48H    basis set group =>   4
Atom  49H    basis set group =>   4
Atom  50H    basis set group =>   4
Atom  51H    basis set group =>   4
------------------------------------------------------------------------------
                             ORCA STARTUP CALCULATIONS
                           -- RI-GTO INTEGRALS CHOSEN --
------------------------------------------------------------------------------
------------------------------------------------------------------------------
                   ___                                                        
                  /   \      - P O W E R E D   B Y -                         
                 /     \                                                     
                 |  |  |   _    _      __       _____    __    __             
                 |  |  |  | |  | |    /  \     |  _  \  |  |  /  |          
                  \  \/   | |  | |   /    \    | | | |  |  | /  /          
                 / \  \   | |__| |  /  /\  \   | |_| |  |  |/  /          
                |  |  |   |  __  | /  /__\  \  |    /   |      \           
                |  |  |   | |  | | |   __   |  |    \   |  |\   \          
                \     /   | |  | | |  |  |  |  | |\  \  |  | \   \       
                 \___/    |_|  |_| |__|  |__|  |_| \__\ |__|  \__/        
                                                                              
                      - O R C A' S   B I G   F R I E N D -                    
                                      &                                       
                       - I N T E G R A L  F E E D E R -                       
                                                                              
 v1 FN, 2020, v2 2021, v3 2022-2024                                           
------------------------------------------------------------------------------


----------------------
SHARK INTEGRAL PACKAGE
----------------------

Number of atoms                             ...     52
Number of basis functions                   ...    584
Number of shells                            ...    300
Maximum angular momentum                    ...      2
Integral batch strategy                     ... SHARK/LIBINT Hybrid
RI-J (if used) integral strategy            ... SPLIT-RIJ (Revised 2003 algorithm where possible)
Printlevel                                  ...      1
Contraction scheme used                     ... SEGMENTED contraction
Prescreening option                         ... SCHWARTZ
   Thresh                                   ... 2.500e-11
   Tcut                                     ... 2.500e-12
   Tpresel                                  ... 2.500e-12 
Coulomb Range Separation                    ... NOT USED
Exchange Range Separation                   ... NOT USED
Multipole approximations                    ... NOT USED
Finite Nucleus Model                        ... NOT USED
CABS basis                                  ... NOT available
Auxiliary Coulomb fitting basis             ... AVAILABLE
   # of basis functions in Aux-J            ...   1638
   # of shells in Aux-J                     ...    542
   Maximum angular momentum in Aux-J        ...      4
Auxiliary J/K fitting basis                 ... NOT available
Auxiliary Correlation fitting basis         ... NOT available
Auxiliary 'external' fitting basis          ... NOT available

Checking pre-screening integrals            ... done (  0.0 sec) Dimension = 300
Check shell pair data                       ... done (  0.0 sec)
Shell pair information
Shell pair cut-off parameter TPreSel        ...   2.5e-12
Total number of shell pairs                 ...     45150
Shell pairs after pre-screening             ...     30938
Total number of primitive shell pairs       ...    182167
Primitive shell pairs kept                  ...     72406
          la=0 lb=0:  11187 shell pairs
          la=1 lb=0:  11430 shell pairs
          la=1 lb=1:   2960 shell pairs
          la=2 lb=0:   3304 shell pairs
          la=2 lb=1:   1778 shell pairs
          la=2 lb=2:    279 shell pairs

Calculating one electron integrals          ... done (  0.2 sec)
Calculating RI/J V-Matrix + Cholesky decomp.... done (  0.6 sec)
Calculating Nuclear repulsion               ... done (  0.0 sec) ENN=   3224.743157245237 Eh

Diagonalization of the overlap matrix:
Smallest eigenvalue                        ... 8.538e-05
Time for diagonalization                   ...    0.043 sec
Threshold for overlap eigenvalues          ... 1.000e-07
Number of eigenvalues below threshold      ... 0
Time for construction of square roots      ...    0.070 sec
Total time needed                          ...    0.130 sec

-------------------
DFT GRID GENERATION
-------------------

General Integration Accuracy     IntAcc      ... 4.388
Radial Grid Type                 RadialGrid  ... OptM3 with GC (2021)
Angular Grid (max. ang.)         AngularGrid ... 4 (Lebedev-302)
Angular grid pruning method      GridPruning ... 4 (adaptive)
Weight generation scheme         WeightScheme... mBecke (2022)
Basis function cutoff            BFCut       ... 1.0000e-11
Integration weight cutoff        WCut        ... 1.0000e-14
Partially contracted basis set               ... off
Rotationally invariant grid construction     ... off
Angular grids for H and He will be reduced by one unit

Total number of grid points                  ...   243712
Total number of batches                      ...     3835
Average number of points per batch           ...       63
Average number of grid points per atom       ...     4687

--------------------
COSX GRID GENERATION
--------------------

GRIDX 1
-------
General Integration Accuracy     IntAcc      ... 3.816
Radial Grid Type                 RadialGrid  ... OptM3 with GC (2021)
Angular Grid (max. ang.)         AngularGrid ... 1 (Lebedev-50)
Angular grid pruning method      GridPruning ... 4 (adaptive)
Weight generation scheme         WeightScheme... mBecke (2022)
Basis function cutoff            BFCut       ... 1.0000e-11
Integration weight cutoff        WCut        ... 1.0000e-14
Partially contracted basis set               ... on
Rotationally invariant grid construction     ... off
Angular grids for H and He will be reduced by one unit

Total number of grid points                  ...    31873
Total number of batches                      ...      277
Average number of points per batch           ...      115
Average number of grid points per atom       ...      613
UseSFitting                                  ... on

GRIDX 2
-------
General Integration Accuracy     IntAcc      ... 4.020
Radial Grid Type                 RadialGrid  ... OptM3 with GC (2021)
Angular Grid (max. ang.)         AngularGrid ... 2 (Lebedev-110)
Angular grid pruning method      GridPruning ... 4 (adaptive)
Weight generation scheme         WeightScheme... mBecke (2022)
Basis function cutoff            BFCut       ... 1.0000e-11
Integration weight cutoff        WCut        ... 1.0000e-14
Partially contracted basis set               ... on
Rotationally invariant grid construction     ... off
Angular grids for H and He will be reduced by one unit

Total number of grid points                  ...    66128
Total number of batches                      ...      544
Average number of points per batch           ...      121
Average number of grid points per atom       ...     1272
UseSFitting                                  ... on

GRIDX 3
-------
General Integration Accuracy     IntAcc      ... 4.338
Radial Grid Type                 RadialGrid  ... OptM3 with GC (2021)
Angular Grid (max. ang.)         AngularGrid ... 3 (Lebedev-194)
Angular grid pruning method      GridPruning ... 4 (adaptive)
Weight generation scheme         WeightScheme... mBecke (2022)
Basis function cutoff            BFCut       ... 1.0000e-11
Integration weight cutoff        WCut        ... 1.0000e-14
Partially contracted basis set               ... on
Rotationally invariant grid construction     ... off
Angular grids for H and He will be reduced by one unit

Total number of grid points                  ...   144448
Total number of batches                      ...     1155
Average number of points per batch           ...      125
Average number of grid points per atom       ...     2778
UseSFitting                                  ... on
Initializing property integral containers    ... done (  0.0 sec)

SHARK setup successfully completed in  10.7 seconds

Maximum memory used throughout the entire STARTUP-calculation: 131.0 MB
-------------------------------------------------------------------------------
                                 ORCA GUESS
                   Start orbitals & Density for SCF / CASSCF
-------------------------------------------------------------------------------

------------
SCF SETTINGS
------------
Hamiltonian:
 Density Functional     Method          .... DFT(GTOs)
 Exchange Functional    Exchange        .... B88
   X-Alpha parameter    XAlpha          ....  0.666667
   Becke's b parameter  XBeta           ....  0.004200
 Correlation Functional Correlation     .... LYP
 LDA part of GGA corr.  LDAOpt          .... VWN-3
 Gradients option       PostSCFGGA      .... off
 Hybrid DFT is turned on
   Fraction HF Exchange ScalHFX         ....  0.200000
   Scaling of DF-GGA-X  ScalDFX         ....  0.720000
   Scaling of DF-GGA-C  ScalDFC         ....  0.810000
   Scaling of DF-LDA-C  ScalLDAC        ....  1.000000
   Perturbative correction              ....  0.000000
   NL short-range parameter             ....  4.800000
 RI-approximation to the Coulomb term is turned on
   Number of AuxJ basis functions       .... 1638
   RIJ-COSX (HFX calculated with COS-X)).... on


General Settings:
 Integral files         IntName         .... 2
 Hartree-Fock type      HFTyp           .... RHF
 Total Charge           Charge          ....    1
 Multiplicity           Mult            ....    1
 Number of Electrons    NEL             ....  212
 Basis Dimension        Dim             ....  584
 Nuclear Repulsion      ENuc            ....   3224.7431572452 Eh

Convergence Acceleration:
 AO-DIIS                CNVDIIS         .... on
   Start iteration      DIISMaxIt       ....    12
   Startup error        DIISStart       ....  0.200000
   # of expansion vecs  DIISMaxEq       ....     5
   Bias factor          DIISBfac        ....   1.050
   Max. coefficient     DIISMaxC        ....  10.000
 MO-DIIS                CNVKDIIS        .... off
 Trust-Rad. Augm. Hess. CNVTRAH         .... auto
   Auto Start mean grad. ratio tolernc. ....  1.125000
   Auto Start start iteration           ....    50
   Auto Start num. interpolation iter.  ....    10
   Max. Number of Micro iterations      ....    24
   Max. Number of Macro iterations      .... Maxiter - #DIIS iter
   Number of Davidson start vectors     ....     2
   Converg. threshold    (grad. norm)   ....   1.000e-05
   Grad. Scal. Fac. for Micro threshold ....   0.100
   Minimum threshold for Micro iter.    ....   1.000e-02
   NR start threshold (gradient norm)   ....   1.000e-04
   Initial trust radius                 ....   0.400
   Minimum AH scaling param. (alpha)    ....   1.000
   Maximum AH scaling param. (alpha)    .... 1000.000
   Quad. conv. algorithm                .... NR
   White noise on init. David. guess    .... on
   Maximum white noise                  ....   0.010
   Pseudo random numbers                .... off
   Inactive MOs                         .... canonical
   Orbital update algorithm             .... Taylor
   Preconditioner                       .... Diag
   Full preconditioner red. dimension   ....   250
 SOSCF                  CNVSOSCF        .... on
   Start iteration      SOSCFMaxIt      ....   150
   Startup grad/error   SOSCFStart      ....  0.003300
   Hessian update       SOSCFHessUp     .... L-BFGS
 Level Shifting         CNVShift        .... on
   Level shift para.    LevelShift      ....    0.2500
   Turn off err/grad.   ShiftErr        ....    0.0010
 Zerner damping         CNVZerner       .... off
 Static damping         CNVDamp         .... on
   Fraction old density DampFac         ....    0.7000
   Max. Damping (<1)    DampMax         ....    0.9800
   Min. Damping (>=0)   DampMin         ....    0.0000
   Turn off err/grad.   DampErr         ....    0.1000

SCF Procedure:
 Maximum # iterations   MaxIter         ....   125
 SCF integral mode      SCFMode         .... Direct
   Integral package                     .... SHARK and LIBINT hybrid scheme
 Reset frequency        DirectResetFreq ....    20
 Integral Threshold     Thresh          ....  2.500e-11 Eh
 Primitive CutOff       TCut            ....  2.500e-12 Eh

Convergence Tolerance:
 Convergence Check Mode ConvCheckMode   .... Total+1el-Energy
 Convergence forced     ConvForced      .... 0
 Energy Change          TolE            ....  1.000e-08 Eh
 1-El. energy change                    ....  1.000e-05 Eh
 Orbital Gradient       TolG            ....  1.000e-05
 Orbital Rotation angle TolX            ....  1.000e-05
 DIIS Error             TolErr          ....  5.000e-07

------------------------------
INITIAL GUESS: MODEL POTENTIAL
------------------------------
Loading Hartree-Fock densities                     ... done
Calculating cut-offs                               ... done
Initializing the effective Hamiltonian             ... done
Setting up the integral package (SHARK)            ... done
Starting the Coulomb interaction                   ... done (   2.4 sec)
Making the grid                                    ... done (   1.0 sec)
Mapping shells                                     ... done
Starting the XC term evaluation                    ... done (   0.8 sec)
  promolecular density results
     # of electrons  =    212.992887688
     EX              =   -187.064401718
     EC              =     -7.428928829
     EX+EC           =   -194.493330547
Transforming the Hamiltonian                       ... done (   0.0 sec)
Diagonalizing the Hamiltonian                      ... done (   0.0 sec)
Back transforming the eigenvectors                 ... done (   0.0 sec)
Now organizing SCF variables                       ... done
                      ------------------
                      INITIAL GUESS DONE (   4.5 sec)
                      ------------------
             **** ENERGY FILE WAS UPDATED (2.en.tmp) ****
Finished Guess after   5.3 sec
Maximum memory used throughout the entire GUESS-calculation: 82.3 MB

-------------------------------------------------------------------------------------------
                                      ORCA LEAN-SCF
                              memory conserving SCF solver
-------------------------------------------------------------------------------------------

--------------------
CPCM SOLVATION MODEL
--------------------
CPCM parameters:
  Epsilon                                         ...      80.1510
  Refrac                                          ...       1.3328
  Rsolv                                           ...       1.3000
  Surface type                                    ... GAUSSIAN VDW
  Discretization scheme                           ... Constant charge density
    Threshold for H atoms                         ...       5.0000 (charges/Ang^2)
    Threshold for non-H atoms                     ...       5.0000 (charges/Ang^2)
  Epsilon function type                           ...         CPCM
Solvent:                                          ... WATER
Radii:
  Scheme                                          ... Element-dependent radii
  Radius for C  used is    3.8550 Bohr (=   2.0400 Ang.)
  Radius for O  used is    3.4469 Bohr (=   1.8240 Ang.)
  Radius for N  used is    3.5149 Bohr (=   1.8600 Ang.)
  Radius for H  used is    2.4944 Bohr (=   1.3200 Ang.)
  Radius for P  used is    4.0818 Bohr (=   2.1600 Ang.)
Calculating surface                               ...        done! (  0.0s)
Cavity surface points                             ...         4197
Cavity Volume                                     ...    3027.8240
Cavity Surface-area                               ...    1434.9881
Calculating surface distance matrix               ...        done! (  0.1s)
Performing Cholesky decomposition & store         ...        done! (  2.3s)
Overall time for CPCM initialization              ...                 2.4s

----------------------------------------D-I-I-S--------------------------------------------
Iteration    Energy (Eh)           Delta-E    RMSDP     MaxDP     DIISErr   Damp  Time(sec)
-------------------------------------------------------------------------------------------
               ***  Starting incremental Fock matrix formation  ***
    1    -1602.9692881656942518     0.00e+00  1.73e-03  1.19e-01  4.11e-01  0.700  46.8
    2    -1603.3633782716328824    -3.94e-01  1.07e-03  5.37e-02  1.39e-01  0.700  24.9
                               ***Turning on AO-DIIS***
    3    -1603.5076651476433653    -1.44e-01  3.90e-04  1.45e-02  4.69e-02  0.700  24.3
    4    -1603.5987053758058209    -9.10e-02  6.70e-04  2.65e-02  2.20e-02  0.000  22.6
    5    -1603.8010892283850808    -2.02e-01  1.47e-04  6.54e-03  6.58e-03  0.000  24.0
                              *** Initializing SOSCF ***
---------------------------------------S-O-S-C-F--------------------------------------
Iteration    Energy (Eh)           Delta-E    RMSDP     MaxDP     MaxGrad    Time(sec)
--------------------------------------------------------------------------------------
    6    -1603.8020775040208719    -9.88e-04  4.49e-05  1.32e-03  2.04e-03    21.6
               *** Restarting incremental Fock matrix formation ***
    7    -1603.8021271282173075    -4.96e-05  3.53e-05  1.41e-03  4.11e-04    47.6
    8    -1603.8021075225819914     1.96e-05  2.02e-05  8.73e-04  8.61e-04    29.8
    9    -1603.8021427617809422    -3.52e-05  2.69e-06  1.06e-04  2.49e-05    27.5
   10    -1603.8021427020844385     5.97e-08  1.28e-06  7.33e-05  3.79e-05    21.5
   11    -1603.8021428830575132    -1.81e-07  8.90e-07  3.44e-05  1.05e-05    18.9
   12    -1603.8021428395736621     4.35e-08  4.47e-07  1.97e-05  9.33e-06    18.7
   13    -1603.8021428711822409    -3.16e-08  1.45e-07  4.84e-06  1.14e-06    15.9
                  *** Gradient check signals convergence ***

               *****************************************************
               *                     SUCCESS                       *
               *           SCF CONVERGED AFTER  13 CYCLES          *
               *****************************************************

Recomputing exchange energy using gridx3       ... done (   73.210 sec)
Old exchange energy                            :    -37.912738969 Eh
New exchange energy                            :    -37.912729569 Eh
Exchange energy change after final integration :      0.000009400 Eh
Total energy after final integration           :  -1603.802133471 Eh
             **** ENERGY FILE WAS UPDATED (2.en.tmp) ****

----------------
TOTAL SCF ENERGY
----------------

Total Energy       :      -1603.80213347139215 Eh          -43641.67475 eV

Components:
Nuclear Repulsion  :       3224.74315724523740 Eh           87749.72242 eV
Electronic Energy  :      -4828.45949172256223 Eh         -131389.06246 eV
One Electron Energy:      -8582.24624702506662 Eh         -233534.79306 eV
Two Electron Energy:       3753.78675530250439 Eh          102145.73060 eV
CPCM Dielectric    :         -0.08580839385712 Eh              -2.33497 eV

Virial components:
Potential Energy   :      -3203.23951268456767 Eh          -87164.57850 eV
Kinetic Energy     :       1599.43737921317552 Eh           43522.90375 eV
Virial Ratio       :          2.00272893100720

DFT components:
N(Alpha)           :      105.999966421322 electrons
N(Beta)            :      105.999966421322 electrons
N(Total)           :      211.999932842644 electrons
E(X)               :     -150.674985588176 Eh       
E(C)               :       -9.482579479952 Eh       
E(XC)              :     -160.157565068127 Eh       

CPCM Solvation Model Properties:
Surface-charge          :         -1.02910659730222
Corrected charge        :         -1.00000000000000
Outlying charge corr.   :          0.00004287111135 Eh               0.00117 eV
Free-energy (cav+disp)  :  This term is not implemented in the current solvation scheme

---------------
SCF CONVERGENCE
---------------

  Last Energy change         ...    3.1609e-08  Tolerance :   1.0000e-08
  Last MAX-Density change    ...    4.8351e-06  Tolerance :   1.0000e-07
  Last RMS-Density change    ...    1.4534e-07  Tolerance :   5.0000e-09
  Last DIIS Error            ...    2.0364e-03  Tolerance :   5.0000e-07
  Last Orbital Gradient      ...    1.1359e-06  Tolerance :   1.0000e-05
  Last Orbital Rotation      ...    5.6351e-06  Tolerance :   1.0000e-05


----------------
ORBITAL ENERGIES
----------------

  NO   OCC          E(Eh)            E(eV) 
   0   2.0000     -77.225573     -2101.4147 
   1   2.0000     -19.196307      -522.3581 
   2   2.0000     -19.182288      -521.9766 
   3   2.0000     -19.174201      -521.7565 
   4   2.0000     -19.118368      -520.2372 
   5   2.0000     -19.102281      -519.7995 
   6   2.0000     -14.432066      -392.7165 
   7   2.0000     -14.356531      -390.6611 
   8   2.0000     -10.333035      -281.1762 
   9   2.0000     -10.278258      -279.6856 
  10   2.0000     -10.271703      -279.5073 
  11   2.0000     -10.271191      -279.4933 
  12   2.0000     -10.241997      -278.6989 
  13   2.0000     -10.236599      -278.5520 
  14   2.0000     -10.234486      -278.4945 
  15   2.0000     -10.231226      -278.4058 
  16   2.0000     -10.220129      -278.1038 
  17   2.0000     -10.218569      -278.0614 
  18   2.0000     -10.215368      -277.9743 
  19   2.0000     -10.201385      -277.5938 
  20   2.0000     -10.200671      -277.5744 
  21   2.0000     -10.197515      -277.4885 
  22   2.0000     -10.197294      -277.4825 
  23   2.0000     -10.195794      -277.4417 
  24   2.0000     -10.189515      -277.2708 
  25   2.0000     -10.188181      -277.2345 
  26   2.0000     -10.165549      -276.6186 
  27   2.0000     -10.165405      -276.6147 
  28   2.0000      -6.707836      -182.5295 
  29   2.0000      -4.870061      -132.5211 
  30   2.0000      -4.869842      -132.5151 
  31   2.0000      -4.868286      -132.4728 
  32   2.0000      -1.146456       -31.1967 
  33   2.0000      -1.129778       -30.7428 
  34   2.0000      -1.074575       -29.2407 
  35   2.0000      -1.051701       -28.6182 
  36   2.0000      -1.041086       -28.3294 
  37   2.0000      -1.014417       -27.6037 
  38   2.0000      -0.963137       -26.2083 
  39   2.0000      -0.913535       -24.8585 
  40   2.0000      -0.877547       -23.8793 
  41   2.0000      -0.849477       -23.1154 
  42   2.0000      -0.821003       -22.3406 
  43   2.0000      -0.791228       -21.5304 
  44   2.0000      -0.783716       -21.3260 
  45   2.0000      -0.774832       -21.0842 
  46   2.0000      -0.770691       -20.9716 
  47   2.0000      -0.733432       -19.9577 
  48   2.0000      -0.725503       -19.7420 
  49   2.0000      -0.710246       -19.3268 
  50   2.0000      -0.696567       -18.9545 
  51   2.0000      -0.684665       -18.6307 
  52   2.0000      -0.668684       -18.1958 
  53   2.0000      -0.656923       -17.8758 
  54   2.0000      -0.650511       -17.7013 
  55   2.0000      -0.613385       -16.6911 
  56   2.0000      -0.604200       -16.4411 
  57   2.0000      -0.569964       -15.5095 
  58   2.0000      -0.563178       -15.3249 
  59   2.0000      -0.559227       -15.2173 
  60   2.0000      -0.553732       -15.0678 
  61   2.0000      -0.545823       -14.8526 
  62   2.0000      -0.542011       -14.7489 
  63   2.0000      -0.520400       -14.1608 
  64   2.0000      -0.516448       -14.0533 
  65   2.0000      -0.509468       -13.8633 
  66   2.0000      -0.500512       -13.6196 
  67   2.0000      -0.499251       -13.5853 
  68   2.0000      -0.492877       -13.4119 
  69   2.0000      -0.488920       -13.3042 
  70   2.0000      -0.482948       -13.1417 
  71   2.0000      -0.476535       -12.9672 
  72   2.0000      -0.468355       -12.7446 
  73   2.0000      -0.462237       -12.5781 
  74   2.0000      -0.456164       -12.4128 
  75   2.0000      -0.455440       -12.3931 
  76   2.0000      -0.451282       -12.2800 
[...]
133:   3041.92   0.018675   94.38  0.001916  ( 0.013824  0.017161 -0.037818)
134:   3042.16   0.002720   13.75  0.000279  ( 0.014729 -0.004596  0.006401)
135:   3044.19   0.001992   10.07  0.000204  ( 0.012287 -0.005645 -0.004621)
136:   3095.02   0.017515   88.51  0.001766  ( 0.011375  0.036020  0.018417)
137:   3097.12   0.001309    6.61  0.000132  (-0.008095  0.007941  0.001812)
138:   3097.31   0.000101    0.51  0.000010  ( 0.000586  0.002474  0.001935)
139:   3101.09   0.001019    5.15  0.000103  ( 0.009129  0.004221 -0.001200)
140:   3108.59   0.009832   49.69  0.000987  (-0.000926 -0.013487  0.028360)
141:   3109.21   0.009881   49.93  0.000992  ( 0.004962 -0.028872 -0.011557)
142:   3113.26   0.006527   32.99  0.000654  (-0.016777  0.000333  0.019306)
143:   3120.79   0.006057   30.61  0.000606  (-0.011967 -0.021403  0.002085)
144:   3158.07   0.005836   29.49  0.000577  (-0.009031 -0.020240  0.009245)
145:   3165.98   0.005745   29.03  0.000566  (-0.008369 -0.010569 -0.019610)
146:   3178.96   0.001348    6.81  0.000132  ( 0.010165 -0.001252 -0.005235)
147:   3186.90   0.000566    2.86  0.000055  (-0.007339 -0.001099 -0.000573)
148:   3191.41   0.000368    1.86  0.000036  ( 0.004208 -0.000970  0.004168)
149:   3192.26   0.002085   10.53  0.000204  ( 0.008773 -0.006621  0.009109)
150:   3201.25   0.005039   25.47  0.000491  (-0.012985 -0.013761  0.011543)
151:   3202.78   0.000445    2.25  0.000043  (-0.004698 -0.003058  0.003459)
152:   3206.63   0.002964   14.98  0.000288  (-0.006683  0.010882 -0.011197)
153:   3232.89   0.000231    1.17  0.000022  ( 0.000453 -0.004031  0.002412)
154:   3245.29   0.000018    0.09  0.000002  (-0.000582  0.000450  0.001111)
155:   3251.58   0.001598    8.08  0.000153  (-0.000988 -0.011088  0.005428)

* The epsilon (eps) is given for a Dirac delta lineshape.
** The dipole moment derivative (T) already includes vibrational overlap.

The first frequency considered to be a vibration is 6
The total number of vibrations considered is 150


--------------------------
THERMOCHEMISTRY AT 298.15K
--------------------------

Temperature         ...   298.15 K
Pressure            ...     1.00 atm
Total Mass          ...   403.39 AMU
Quasi RRHO          ...     True
Cut-Off Frequency   ...     1.00 cm^-1

Throughout the following assumptions are being made:
  (1) The electronic state is orbitally nondegenerate
  (2) There are no thermally accessible electronically excited states
  (3) Hindered rotations indicated by low frequency modes are not
      treated as such but are treated as vibrations and this may
      cause some error
  (4) All equations used are the standard statistical mechanics
      equations for an ideal gas
  (5) All vibrations are strictly harmonic

freq.      23.70  E(vib)   ...       0.56 
freq.      28.43  E(vib)   ...       0.55 
freq.      32.74  E(vib)   ...       0.55 
freq.      35.23  E(vib)   ...       0.54 
freq.      43.93  E(vib)   ...       0.53 
freq.      47.26  E(vib)   ...       0.53 
freq.      55.84  E(vib)   ...       0.52 
freq.      58.97  E(vib)   ...       0.51 
freq.      74.22  E(vib)   ...       0.49 
freq.      79.49  E(vib)   ...       0.49 
freq.      85.98  E(vib)   ...       0.48 
freq.     100.61  E(vib)   ...       0.46 
freq.     115.44  E(vib)   ...       0.44 
freq.     117.77  E(vib)   ...       0.44 
freq.     136.67  E(vib)   ...       0.42 
freq.     153.76  E(vib)   ...       0.40 
freq.     175.06  E(vib)   ...       0.38 
freq.     186.85  E(vib)   ...       0.36 
freq.     206.00  E(vib)   ...       0.35 
freq.     213.27  E(vib)   ...       0.34 
freq.     227.61  E(vib)   ...       0.33 
freq.     248.45  E(vib)   ...       0.31 
freq.     249.18  E(vib)   ...       0.31 
freq.     255.87  E(vib)   ...       0.30 
freq.     267.15  E(vib)   ...       0.29 
freq.     274.25  E(vib)   ...       0.28 
freq.     303.86  E(vib)   ...       0.26 
freq.     326.21  E(vib)   ...       0.24 
freq.     353.97  E(vib)   ...       0.22 
freq.     375.63  E(vib)   ...       0.21 
freq.     395.87  E(vib)   ...       0.20 
freq.     397.65  E(vib)   ...       0.20 
freq.     423.41  E(vib)   ...       0.18 
freq.     430.55  E(vib)   ...       0.18 
freq.     441.03  E(vib)   ...       0.17 
freq.     474.58  E(vib)   ...       0.15 
freq.     480.74  E(vib)   ...       0.15 
freq.     486.52  E(vib)   ...       0.15 
freq.     506.39  E(vib)   ...       0.14 
freq.     519.30  E(vib)   ...       0.13 
freq.     529.20  E(vib)   ...       0.13 
freq.     542.64  E(vib)   ...       0.12 
freq.     560.97  E(vib)   ...       0.11 
freq.     585.23  E(vib)   ...       0.11 
freq.     624.62  E(vib)   ...       0.09 
freq.     628.10  E(vib)   ...       0.09 
freq.     662.16  E(vib)   ...       0.08 
freq.     703.45  E(vib)   ...       0.07 
freq.     715.19  E(vib)   ...       0.07 
freq.     722.25  E(vib)   ...       0.07 
freq.     743.65  E(vib)   ...       0.06 
freq.     759.30  E(vib)   ...       0.06 
freq.     774.27  E(vib)   ...       0.05 
freq.     779.56  E(vib)   ...       0.05 
freq.     782.91  E(vib)   ...       0.05 
freq.     811.94  E(vib)   ...       0.05 
freq.     813.73  E(vib)   ...       0.05 
freq.     816.67  E(vib)   ...       0.05 
freq.     824.00  E(vib)   ...       0.05 
freq.     839.68  E(vib)   ...       0.04 
freq.     849.66  E(vib)   ...       0.04 
freq.     902.26  E(vib)   ...       0.03 
freq.     907.46  E(vib)   ...       0.03 
freq.     939.38  E(vib)   ...       0.03 
freq.     958.59  E(vib)   ...       0.03 
freq.     960.99  E(vib)   ...       0.03 
freq.     980.98  E(vib)   ...       0.02 
freq.     987.23  E(vib)   ...       0.02 
freq.     995.98  E(vib)   ...       0.02 
freq.    1003.78  E(vib)   ...       0.02 
freq.    1014.91  E(vib)   ...       0.02 
freq.    1020.94  E(vib)   ...       0.02 
freq.    1033.09  E(vib)   ...       0.02 
freq.    1062.14  E(vib)   ...       0.02 
freq.    1082.22  E(vib)   ...       0.02 
freq.    1112.67  E(vib)   ...       0.01 
freq.    1113.66  E(vib)   ...       0.01 
freq.    1114.25  E(vib)   ...       0.01 
freq.    1131.22  E(vib)   ...       0.01 
freq.    1132.56  E(vib)   ...       0.01 
freq.    1138.35  E(vib)   ...       0.01 
freq.    1153.69  E(vib)   ...       0.01 
freq.    1180.45  E(vib)   ...       0.01 
freq.    1181.52  E(vib)   ...       0.01 
freq.    1183.46  E(vib)   ...       0.01 
freq.    1186.10  E(vib)   ...       0.01 
freq.    1200.83  E(vib)   ...       0.01 
freq.    1215.04  E(vib)   ...       0.01 
freq.    1238.50  E(vib)   ...       0.01 
freq.    1258.94  E(vib)   ...       0.01 
freq.    1274.19  E(vib)   ...       0.01 
freq.    1284.32  E(vib)   ...       0.01 
freq.    1289.05  E(vib)   ...       0.01 
freq.    1300.13  E(vib)   ...       0.01 
freq.    1320.46  E(vib)   ...       0.01 
freq.    1324.49  E(vib)   ...       0.01 
freq.    1347.20  E(vib)   ...       0.01 
freq.    1358.81  E(vib)   ...       0.01 
freq.    1407.36  E(vib)   ...       0.00 
freq.    1410.17  E(vib)   ...       0.00 
freq.    1414.09  E(vib)   ...       0.00 
freq.    1420.06  E(vib)   ...       0.00 
freq.    1422.06  E(vib)   ...       0.00 
freq.    1423.13  E(vib)   ...       0.00 
freq.    1449.05  E(vib)   ...       0.00 
freq.    1455.46  E(vib)   ...       0.00 
freq.    1458.95  E(vib)   ...       0.00 
freq.    1472.13  E(vib)   ...       0.00 
freq.    1477.93  E(vib)   ...       0.00 
freq.    1485.60  E(vib)   ...       0.00 
freq.    1488.25  E(vib)   ...       0.00 
freq.    1491.74  E(vib)   ...       0.00 
freq.    1491.80  E(vib)   ...       0.00 
freq.    1492.08  E(vib)   ...       0.00 
freq.    1501.88  E(vib)   ...       0.00 
freq.    1502.53  E(vib)   ...       0.00 
freq.    1515.17  E(vib)   ...       0.00 
freq.    1517.16  E(vib)   ...       0.00 
freq.    1527.14  E(vib)   ...       0.00 
freq.    1534.93  E(vib)   ...       0.00 
freq.    1555.03  E(vib)   ...       0.00 
freq.    1598.97  E(vib)   ...       0.00 
freq.    1619.25  E(vib)   ...       0.00 
freq.    1640.83  E(vib)   ...       0.00 
freq.    1658.96  E(vib)   ...       0.00 
freq.    1758.17  E(vib)   ...       0.00 
freq.    3036.59  E(vib)   ...       0.00 
freq.    3041.92  E(vib)   ...       0.00 
freq.    3042.16  E(vib)   ...       0.00 
freq.    3044.19  E(vib)   ...       0.00 
freq.    3095.02  E(vib)   ...       0.00 
freq.    3097.12  E(vib)   ...       0.00 
freq.    3097.31  E(vib)   ...       0.00 
freq.    3101.09  E(vib)   ...       0.00 
freq.    3108.59  E(vib)   ...       0.00 
freq.    3109.21  E(vib)   ...       0.00 
freq.    3113.26  E(vib)   ...       0.00 
freq.    3120.79  E(vib)   ...       0.00 
freq.    3158.07  E(vib)   ...       0.00 
freq.    3165.98  E(vib)   ...       0.00 
freq.    3178.96  E(vib)   ...       0.00 
freq.    3186.90  E(vib)   ...       0.00 
freq.    3191.41  E(vib)   ...       0.00 
freq.    3192.26  E(vib)   ...       0.00 
freq.    3201.25  E(vib)   ...       0.00 
freq.    3202.78  E(vib)   ...       0.00 
freq.    3206.63  E(vib)   ...       0.00 
freq.    3232.89  E(vib)   ...       0.00 
freq.    3245.29  E(vib)   ...       0.00 
freq.    3251.58  E(vib)   ...       0.00 

------------
INNER ENERGY
------------

The inner energy is: U= E(el) + E(ZPE) + E(vib) + E(rot) + E(trans)
    E(el)   - is the total energy from the electronic structure calculation
              = E(kin-el) + E(nuc-el) + E(el-el) + E(nuc-nuc)
    E(ZPE)  - the the zero temperature vibrational energy from the frequency calculation
    E(vib)  - the the finite temperature correction to E(ZPE) due to population
              of excited vibrational states
    E(rot)  - is the rotational thermal energy
    E(trans)- is the translational thermal energy

Summary of contributions to the inner energy U:
Electronic energy                ...  -1603.81807434 Eh
Zero point energy                ...      0.41913650 Eh     263.01 kcal/mol
Thermal vibrational correction   ...      0.02529589 Eh      15.87 kcal/mol
Thermal rotational correction    ...      0.00141627 Eh       0.89 kcal/mol
Thermal translational correction ...      0.00141627 Eh       0.89 kcal/mol
-----------------------------------------------------------------------
Total thermal energy                  -1603.37080941 Eh


Summary of corrections to the electronic energy:
(perhaps to be used in another calculation)
Total thermal correction                  0.02812843 Eh      17.65 kcal/mol
Non-thermal (ZPE) correction              0.41913650 Eh     263.01 kcal/mol
-----------------------------------------------------------------------
Total correction                          0.44726493 Eh     280.66 kcal/mol


--------
ENTHALPY
--------

The enthalpy is H = U + kB*T
                kB is Boltzmann's constant
Total thermal energy              ...  -1603.37080941 Eh 
Thermal Enthalpy correction       ...      0.00094421 Eh       0.59 kcal/mol
-----------------------------------------------------------------------
Total Enthalpy                    ...  -1603.36986520 Eh


Note: Only C1 symmetry has been detected, increase convergence thresholds 
      if your molecule has a higher symmetry. Symmetry factor of 1.0 is   
      used for the rotational entropy correction. 
 

Note: Rotational entropy computed according to Herzberg 
Infrared and Raman Spectra, Chapter V,1, Van Nostrand Reinhold, 1945 
Point Group:  C1, Symmetry Number:   1  
Rotational constants in cm-1:     0.007061     0.006079     0.004374 

Vibrational entropy computed according to the QRRHO of S. Grimme
Chem.Eur.J. 2012 18 9955 using a reference frequency of 100.0 cm-1


-------
ENTROPY
-------

The entropy contributions are T*S = T*(S(el)+S(vib)+S(rot)+S(trans))
     S(el)   - electronic entropy
     S(vib)  - vibrational entropy
     S(rot)  - rotational entropy
     S(trans)- translational entropy
The entropies will be listed as multiplied by the temperature to get
units of energy

Electronic entropy                ...      0.00000000 Eh      0.00 kcal/mol
Vibrational entropy               ...      0.04568581 Eh     28.67 kcal/mol
Rotational entropy                ...      0.01682264 Eh     10.56 kcal/mol
Translational entropy             ...      0.02084658 Eh     13.08 kcal/mol
-----------------------------------------------------------------------
Final entropy term                ...      0.08335503 Eh     52.31 kcal/mol

In case the symmetry of your molecule has not been determined correctly
or in case you have a reason to use a different symmetry number we print 
out the resulting rotational entropy values for sn=1,12:

 non-linear molecules -----------------------------------
|  sn= 1 | S(rot)=       0.01682264 Eh     10.56 kcal/mol|
|  sn= 2 | S(rot)=       0.01616818 Eh     10.15 kcal/mol|
|  sn= 3 | S(rot)=       0.01578535 Eh      9.91 kcal/mol|
|  sn= 4 | S(rot)=       0.01551372 Eh      9.73 kcal/mol|
|  sn= 5 | S(rot)=       0.01530303 Eh      9.60 kcal/mol|
|  sn= 6 | S(rot)=       0.01513089 Eh      9.49 kcal/mol|
|  sn= 7 | S(rot)=       0.01498534 Eh      9.40 kcal/mol|
|  sn= 8 | S(rot)=       0.01485927 Eh      9.32 kcal/mol|
|  sn= 9 | S(rot)=       0.01474806 Eh      9.25 kcal/mol|
|  sn=10 | S(rot)=       0.01464858 Eh      9.19 kcal/mol|
|  sn=11 | S(rot)=       0.01455859 Eh      9.14 kcal/mol|
|  sn=12 | S(rot)=       0.01447643 Eh      9.08 kcal/mol|
 linear molecules ---------------------------------------
|  Dinfh | S(rot)=       0.01045473 Eh      6.56 kcal/mol|
|  Cinfv | S(rot)=       0.01110918 Eh      6.97 kcal/mol|
 --------------------------------------------------------


-------------------
GIBBS FREE ENERGY
-------------------

The Gibbs free energy is G = H - T*S

Total enthalpy                    ...  -1603.36986520 Eh 
Total entropy correction          ...     -0.08335503 Eh    -52.31 kcal/mol
-----------------------------------------------------------------------
Final Gibbs free energy         ...  -1603.45322023 Eh

For completeness - the Gibbs free energy minus the electronic energy
G-E(el)                           ...      0.36485411 Eh    228.95 kcal/mol


Maximum memory used throughout the entire PROP-calculation: 480.4 MB

--------------------------------
SUGGESTED CITATIONS FOR THIS RUN
--------------------------------

Below you find a list of papers that are relevant to this ORCA run
We neither can nor want to force you to cite these papers, but we appreciate if you do
You receive ORCA, which is the product of decades of hard work by many enthusiastic individuals, for free
The only thing we kindly ask in return is that you cite our papers,
We deeply appreciate it, if you show your appreciation for ORCA by not just citing the generic ORCA reference.

Please note that relegating all ORCA citations to the supporting information does *not* help us.
SI sections are not indexed - citations you put there will not count into any citation statistics
But we need these citations in order to attract the funding resources that allow us to do what we are doing

Therefore, if you are a happy ORCA user, please consider citing a few of the papers listed below in the main body of your paper

In addition to the list printed below, the program has created the file 2.bibtex that contains the list in bibtex format
You can import this file easily into all common literature databanks and citation aid programs


List of essential papers. We consider these as the minimum necessary citations

  1. Neese,F.
     Software update: the ORCA program system, version 5.0
     WIRES Comput. Molec. Sci., 2022 12(1)e1606
     doi.org/10.1002/wcms.1606

List of papers to cite with high priority. The work reported in these papers was absolutely
necessary for this run to complete.
Our perspective: the developers of density functionals and basis sets usually get cited in chemistry papers
Good! But without the algorithms to do something with them, the functionals or basis sets would not do anything.
Hence, in our opinion, the algorithm design and method developments papers are equally worthy of getting cited

  1. Neese,F.
     An improvement of the resolution of the identity approximation for the formation of the Coulomb matrix
     J. Comp. Chem., 2003 24(14)1740-1747
     doi.org/10.1002/jcc.10318
  2. Neese,F.; Wennmohs,F.; Hansen,A.; Becker,U.
     Efficient, approximate and parallel Hartree-Fock and hybrid DFT calculations. A 'chain-of-spheres' algorithm for the Hartree-Fock exchange
     Chem. Phys., 2009 356(1-3)98-109
     doi.org/10.1016/j.chemphys.2008.10.036
  3. Bykov,D.; Petrenko,T.; Izsak,R.; Kossmann,S.; Becker,U.; Valeev,E.; Neese,F.
     Efficient implementation of the analytic second derivatives of Hartree-Fock and hybrid DFT energies: a detailed analysis of different approximations
     Molec. Phys., 2015 113 1961-1977
     doi.org/10.1080/00268976.2015.1025114
  4. Garcia-Rates,M.; Neese,F.
     Efficient implementation of the analytical second derivatives of hartree-fock and hybrid DFT energies within the framework of the conductor-like polarizable continuum model
     J. Comput. Chem., 2019 40 1816-1828
     doi.org/10.1002/jcc.25833
  5. Garcia-Rates,M.; Neese,F.
     Effect of the Solute Cavity on the Solvation Energy and its Derivatives within the Framework of the Gaussian Charge Scheme
     J. Comput. Chem., 2020 41 922-939
     doi.org/10.1002/jcc.26139
  6. Helmich-Paris,B.; de Souza,B.; Neese,F.; Izsák,R.
     An improved chain of spheres for exchange algorithm
     J. Chem. Phys., 2021 155 104109
     doi.org/doi: 10.1063/5.0058766.
  7. Neese,F.
     The SHARK Integral Generation and Digestion System
     J. Comp. Chem., 2022  1-16
     doi.org/10.1002/jcc.26942

List of suggested additional citations. These are papers that are important in the 'surrounding' of 
of this run, or papers that preceded the highly important papers. If you like your results we are grateful for a citation.

  1. Izsak,R.; Neese,F.
     An overlap fitted chain of spheres exchange method
     J. Chem. Phys., 2011 135 144105
     doi.org/10.1063/1.3646921
  2. Izsak,R.; Hansen,A.; Neese,F.
     The resolution of identity and chain of spheres approximations for the LPNO-CCSD singles Fock term
     Molec. Phys., 2012 110 2413-2417
     doi.org/10.1080/00268976.2012.687466
  3. Neese,F.
     The ORCA program system
     WIRES Comput. Molec. Sci., 2012 2(1)73-78
     doi.org/10.1002/wcms.81
  4. Izsak,R.; Neese,F.; Klopper,W.
     Robust fitting techniques in the chain of spheres approximation to the Fock exchange: The role of the complementary space
     J. Chem. Phys., 2013 139 
     doi.org/10.1063/1.4819264
  5. Neese,F.
     Software update: the ORCA program system, version 4.0
     WIRES Comput. Molec. Sci., 2018 8(1)1-6
     doi.org/10.1002/wcms.1327
  6. Neese,F.; Wennmohs,F.; Becker,U.; Riplinger,C.
     The ORCA quantum chemistry program package
     J. Chem. Phys., 2020 152 Art. No. L224108
     doi.org/10.1063/5.0004608

List of optional additional citations

  1. Neese,F.
     Approximate second-order SCF convergence for spin unrestricted wavefunctions
     Chem. Phys. Lett., 2000 325(1-3)93-98
     doi.org/10.1016/s0009-2614(00)00662-x

Timings for individual modules:

Sum of individual times          ...    19609.521 sec (= 326.825 min)
Startup calculation              ...      219.476 sec (=   3.658 min)   1.1 %
SCF iterations                   ...     6315.939 sec (= 105.266 min)  32.2 %
Property integrals               ...     2677.791 sec (=  44.630 min)  13.7 %
SCF Response                     ...     4549.591 sec (=  75.827 min)  23.2 %
Property calculations            ...     2387.848 sec (=  39.797 min)  12.2 %
SCF Gradient evaluation          ...     3457.181 sec (=  57.620 min)  17.6 %
Geometry relaxation              ...        1.696 sec (=   0.028 min)   0.0 %
                             ****ORCA TERMINATED NORMALLY****
TOTAL RUN TIME: 0 days 5 hours 26 minutes 55 seconds 390 msec
