
                                 *****************
                                 * O   R   C   A *
                                 *****************

                                            #,                                       
                                            ###                                      
                                            ####                                     
                                            #####                                    
                                            ######                                   
                                           ########,                                 
                                     ,,################,,,,,                         
                               ,,#################################,,                 
                          ,,##########################################,,             
                       ,#########################################, ''#####,          
                    ,#############################################,,   '####,        
                  ,##################################################,,,,####,       
                ,###########''''           ''''###############################       
              ,#####''   ,,,,##########,,,,          '''####'''          '####       
            ,##' ,,,,###########################,,,                        '##       
           ' ,,###''''                  '''############,,,                           
         ,,##''                                '''############,,,,        ,,,,,,###''
      ,#''                                            '''#######################'''  
     '                                                          ''''####''''         
             ,#######,   #######,   ,#######,      ##                                
            ,#'     '#,  ##    ##  ,#'     '#,    #''#        ######   ,####,        
            ##       ##  ##   ,#'  ##            #'  '#       #        #'  '#        
            ##       ##  #######   ##           ,######,      #####,   #    #        
            '#,     ,#'  ##    ##  '#,     ,#' ,#      #,         ##   #,  ,#        
             '#######'   ##     ##  '#######'  #'      '#     #####' # '####'        



                  #######################################################
                  #                        -***-                        #
                  #          Department of theory and spectroscopy      #
                  #    Directorship and core code : Frank Neese         #
                  #        Max Planck Institute fuer Kohlenforschung    #
                  #                Kaiser Wilhelm Platz 1               #
                  #                 D-45470 Muelheim/Ruhr               #
                  #                      Germany                        #
                  #                                                     #
                  #                  All rights reserved                #
                  #                        -***-                        #
                  #######################################################


                         Program Version 5.0.4 -  RELEASE  -


 With contributions from (in alphabetic order):
   Daniel Aravena         : Magnetic Suceptibility
   Michael Atanasov       : Ab Initio Ligand Field Theory (pilot matlab implementation)
   Alexander A. Auer      : GIAO ZORA, VPT2 properties, NMR spectrum
   Ute Becker             : Parallelization
   Giovanni Bistoni       : ED, misc. LED, open-shell LED, HFLD
   Martin Brehm           : Molecular dynamics
   Dmytro Bykov           : SCF Hessian
   Vijay G. Chilkuri      : MRCI spin determinant printing, contributions to CSF-ICE
   Dipayan Datta          : RHF DLPNO-CCSD density
   Achintya Kumar Dutta   : EOM-CC, STEOM-CC
   Dmitry Ganyushin       : Spin-Orbit,Spin-Spin,Magnetic field MRCI
   Miquel Garcia          : C-PCM and meta-GGA Hessian, CC/C-PCM, Gaussian charge scheme
   Yang Guo               : DLPNO-NEVPT2, F12-NEVPT2, CIM, IAO-localization
   Andreas Hansen         : Spin unrestricted coupled pair/coupled cluster methods
   Benjamin Helmich-Paris : MC-RPA, TRAH-SCF, COSX integrals
   Lee Huntington         : MR-EOM, pCC
   Robert Izsak           : Overlap fitted RIJCOSX, COSX-SCS-MP3, EOM
   Marcus Kettner         : VPT2
   Christian Kollmar      : KDIIS, OOCD, Brueckner-CCSD(T), CCSD density, CASPT2, CASPT2-K
   Simone Kossmann        : Meta GGA functionals, TD-DFT gradient, OOMP2, MP2 Hessian
   Martin Krupicka        : Initial AUTO-CI
   Lucas Lang             : DCDCAS
   Marvin Lechner         : AUTO-CI (C++ implementation), FIC-MRCC
   Dagmar Lenk            : GEPOL surface, SMD
   Dimitrios Liakos       : Extrapolation schemes; Compound Job, initial MDCI parallelization
   Dimitrios Manganas     : Further ROCIS development; embedding schemes
   Dimitrios Pantazis     : SARC Basis sets
   Anastasios Papadopoulos: AUTO-CI, single reference methods and gradients
   Taras Petrenko         : DFT Hessian,TD-DFT gradient, ASA, ECA, R-Raman, ABS, FL, XAS/XES, NRVS
   Peter Pinski           : DLPNO-MP2, DLPNO-MP2 Gradient
   Christoph Reimann      : Effective Core Potentials
   Marius Retegan         : Local ZFS, SOC
   Christoph Riplinger    : Optimizer, TS searches, QM/MM, DLPNO-CCSD(T), (RO)-DLPNO pert. Triples
   Tobias Risthaus        : Range-separated hybrids, TD-DFT gradient, RPA, STAB
   Michael Roemelt        : Original ROCIS implementation
   Masaaki Saitow         : Open-shell DLPNO-CCSD energy and density
   Barbara Sandhoefer     : DKH picture change effects
   Avijit Sen             : IP-ROCIS
   Kantharuban Sivalingam : CASSCF convergence, NEVPT2, FIC-MRCI
   Bernardo de Souza      : ESD, SOC TD-DFT
   Georgi Stoychev        : AutoAux, RI-MP2 NMR, DLPNO-MP2 response
   Willem Van den Heuvel  : Paramagnetic NMR
   Boris Wezisla          : Elementary symmetry handling
   Frank Wennmohs         : Technical directorship


 We gratefully acknowledge several colleagues who have allowed us to
 interface, adapt or use parts of their codes:
   Stefan Grimme, W. Hujo, H. Kruse, P. Pracht,  : VdW corrections, initial TS optimization,
                  C. Bannwarth, S. Ehlert          DFT functionals, gCP, sTDA/sTD-DF
   Ed Valeev, F. Pavosevic, A. Kumar             : LibInt (2-el integral package), F12 methods
   Garnet Chan, S. Sharma, J. Yang, R. Olivares  : DMRG
   Ulf Ekstrom                                   : XCFun DFT Library
   Mihaly Kallay                                 : mrcc  (arbitrary order and MRCC methods)
   Jiri Pittner, Ondrej Demel                    : Mk-CCSD
   Frank Weinhold                                : gennbo (NPA and NBO analysis)
   Christopher J. Cramer and Donald G. Truhlar   : smd solvation model
   Lars Goerigk                                  : TD-DFT with DH, B97 family of functionals
   V. Asgeirsson, H. Jonsson                     : NEB implementation
   FAccTs GmbH                                   : IRC, NEB, NEB-TS, DLPNO-Multilevel, CI-OPT
                                                   MM, QMMM, 2- and 3-layer-ONIOM, Crystal-QMMM,
                                                   LR-CPCM, SF, NACMEs, symmetry and pop. for TD-DFT,
                                                   nearIR, NL-DFT gradient (VV10), updates on ESD,
                                                   ML-optimized integration grids
   S Lehtola, MJT Oliveira, MAL Marques          : LibXC Library
   Liviu Ungur et al                             : ANISO software


 Your calculation uses the libint2 library for the computation of 2-el integrals
 For citations please refer to: http://libint.valeyev.net

 Your ORCA version has been built with support for libXC version: 5.1.0
 For citations please refer to: https://tddft.org/programs/libxc/

 This ORCA versions uses:
   CBLAS   interface :  Fast vector & matrix operations
   LAPACKE interface :  Fast linear algebra routines
   SCALAPACK package :  Parallel linear algebra routines
   Shared memory     :  Shared parallel matrices
   BLAS/LAPACK       :  OpenBLAS 0.3.15  USE64BITINT DYNAMIC_ARCH NO_AFFINITY Zen SINGLE_THREADED
        Core in use  :  Zen
   Copyright (c) 2011-2014, The OpenBLAS Project


================================================================================

----- Orbital basis set information -----
Your calculation utilizes the basis: def2-TZVP(-f)
   F. Weigend and R. Ahlrichs, Phys. Chem. Chem. Phys. 7, 3297 (2005).

----- AuxJ basis set information -----
Your calculation utilizes the auxiliary basis: def2/J
   F. Weigend, Phys. Chem. Chem. Phys. 8, 1057 (2006).

----- AuxC basis set information -----
Your calculation utilizes the auxiliary basis: def2-TZVP/C
  H-La, Hf-Rn : A. Hellweg, C. Hattig, S. Hofener and W. Klopper, Theor. Chem. Acc. 117, 587 (2007).
        Ce-Lu : J. Chmela and M. E. Harding, Mol. Phys. (2018).

================================================================================
                                        WARNINGS
                       Please study these warnings very carefully!
================================================================================

INFO   : Checking CIS options ...

WARNING: Analytical Frequencies for this method not available!
  ===> : Switching to Numerical Frequencies!

WARNING: CIS/ROCIS methods need fully converged wavefunctions
  ===> : Setting SCFConvForced true
         You can overwrite this default with %scf ConvForced false 


INFO   : the flag for use of the SHARK integral package has been found!

================================================================================
                                       INPUT FILE
================================================================================
NAME = HBQ-Keto_ES.inp
|  1> ! B3LYP/G FREQ Def2-TZVP(-f) Def2-TZVP/C Def2/J RIJCOSX TightSCF CPCM(Water) AllPop SOSCF
|  2> %maxcore 3000
|  3> %tddft
|  4>     NRoots 5
|  5>     IRoot 1
|  6> end
|  7> 
|  8> * xyz 0 1
|  9>   C   -3.69174787238085     -0.58908896744046      0.13540530849715
| 10>   C   -3.68760014353309     -1.97875154088168      0.08937314615279
| 11>   C   -2.49861346784635     -2.67546178313917      0.04403302727502
| 12>   C   -1.23705544175227     -1.99145022799497      0.04012866383990
| 13>   C   -1.20939840892525     -0.58071777965229      0.08531631335520
| 14>   C   -2.48018962950610      0.16556567250271      0.13771219229158
| 15>   O   -2.51459142947726      1.43439125870591      0.18479300708254
| 16>   C   0.07037066125595      0.06581823150845      0.07702813847848
| 17>   C   1.26442235179003     -0.67273630994607      0.02667026133544
| 18>   C   1.18593050618536     -2.08248591719822     -0.01584950610877
| 19>   C   -0.02364902022328     -2.72931387343002     -0.00969786751789
| 20>   N   0.14517372864065      1.43493965081232      0.11736937955001
| 21>   C   1.32347682177721      2.11827755211548      0.11237562027351
| 22>   C   2.52099444714249      1.41999381854147      0.06379241923714
| 23>   C   2.52007880366334      0.03963071421974      0.02041597847553
| 24>   H   -0.75780855618780      1.91238199021105      0.15452032183829
| 25>   H   -4.61836615035312     -0.03110966254780      0.17291001609721
| 26>   H   -4.62628001278995     -2.51897989505219      0.08985945755849
| 27>   H   -2.49569797621784     -3.75725852456921      0.00947518746405
| 28>   H   -0.07143282095122     -3.80986286583709     -0.04298772402020
| 29>   H   2.10790867413311     -2.65008124147039     -0.05399025977406
| 30>   H   3.44442429823905     -0.51983265270061     -0.01853026383700
| 31>   H   1.25435503830621      3.19419848330363      0.14689059416893
| 32>   H   3.44795559901095      1.97726386993943      0.06026658828666
| 33> *
| 34> 
| 35> 
| 36> 
| 37>                          ****END OF INPUT****
================================================================================

                       ****************************
                       * Single Point Calculation *
                       ****************************

---------------------------------
CARTESIAN COORDINATES (ANGSTROEM)
---------------------------------
  C     -3.691748   -0.589089    0.135405
  C     -3.687600   -1.978752    0.089373
  C     -2.498613   -2.675462    0.044033
  C     -1.237055   -1.991450    0.040129
  C     -1.209398   -0.580718    0.085316
  C     -2.480190    0.165566    0.137712
  O     -2.514591    1.434391    0.184793
  C      0.070371    0.065818    0.077028
  C      1.264422   -0.672736    0.026670
  C      1.185931   -2.082486   -0.015850
  C     -0.023649   -2.729314   -0.009698
  N      0.145174    1.434940    0.117369
  C      1.323477    2.118278    0.112376
  C      2.520994    1.419994    0.063792
  C      2.520079    0.039631    0.020416
  H     -0.757809    1.912382    0.154520
  H     -4.618366   -0.031110    0.172910
  H     -4.626280   -2.518980    0.089859
  H     -2.495698   -3.757259    0.009475
  H     -0.071433   -3.809863   -0.042988
  H      2.107909   -2.650081   -0.053990
  H      3.444424   -0.519833   -0.018530
  H      1.254355    3.194198    0.146891
  H      3.447956    1.977264    0.060267

----------------------------
CARTESIAN COORDINATES (A.U.)
----------------------------
  NO LB      ZA    FRAG     MASS         X           Y           Z
   0 C     6.0000    0    12.011   -6.976392   -1.113217    0.255879
   1 C     6.0000    0    12.011   -6.968554   -3.739298    0.168891
   2 C     6.0000    0    12.011   -4.721695   -5.055890    0.083210
   3 C     6.0000    0    12.011   -2.337696   -3.763296    0.075832
   4 C     6.0000    0    12.011   -2.285432   -1.097398    0.161224
   5 C     6.0000    0    12.011   -4.686879    0.312874    0.260238
   6 O     8.0000    0    15.999   -4.751889    2.710607    0.349208
   7 C     6.0000    0    12.011    0.132981    0.124378    0.145562
   8 C     6.0000    0    12.011    2.389412   -1.271287    0.050399
   9 C     6.0000    0    12.011    2.241084   -3.935328   -0.029951
  10 C     6.0000    0    12.011   -0.044690   -5.157656   -0.018326
  11 N     7.0000    0    14.007    0.274339    2.711643    0.221796
  12 C     6.0000    0    12.011    2.501009    4.002964    0.212359
  13 C     6.0000    0    12.011    4.763989    2.683399    0.120550
  14 C     6.0000    0    12.011    4.762259    0.074891    0.038581
  15 H     1.0000    0     1.008   -1.432051    3.613878    0.292001
  16 H     1.0000    0     1.008   -8.727447   -0.058789    0.326753
  17 H     1.0000    0     1.008   -8.742402   -4.760182    0.169810
  18 H     1.0000    0     1.008   -4.716186   -7.100190    0.017906
  19 H     1.0000    0     1.008   -0.134988   -7.199597   -0.081235
  20 H     1.0000    0     1.008    3.983370   -5.007928   -0.102027
  21 H     1.0000    0     1.008    6.509019   -0.982341   -0.035017
  22 H     1.0000    0     1.008    2.370387    6.036160    0.277583
  23 H     1.0000    0     1.008    6.515692    3.736487    0.113887

--------------------------------
INTERNAL COORDINATES (ANGSTROEM)
--------------------------------
 C      0   0   0     0.000000000000     0.00000000     0.00000000
 C      1   0   0     1.390430951773     0.00000000     0.00000000
 C      2   1   0     1.378822034567   120.57565037     0.00000000
 C      3   2   1     1.435066446137   121.15174424   359.86658545
 C      4   3   2     1.411726912664   119.56696410     0.08973914
 C      1   2   3     1.427369021374   121.73104353     0.00000000
 O      6   1   2     1.270164735444   120.34570912   180.23395259
 C      5   4   3     1.433836246077   117.89784801   180.12612678
 C      8   5   4     1.404905038129   121.45006230   359.95431574
 C      9   8   5     1.412573132832   118.58737263     0.00000000
 C     10   9   8     1.371680312000   121.29745418     0.04986063
 N      8   5   4     1.371756675004   119.90402584   179.88368395
 C     12   8   5     1.362121068145   123.21431639   180.00317355
 C     13  12   8     1.387086501649   119.63048115     0.03771526
 C     14  13  12     1.381044768930   120.24488103     0.00000000
 H     12   8   5     1.022109772323   114.77846397     0.16491521
 H      1   2   3     1.082297990783   121.26297365   180.10355348
 H      2   1   3     1.083035921887   119.73131225   179.95464760
 H      3   2   1     1.082352499952   120.55778350   179.92195477
 H     11  10   9     1.082117198435   120.64230087   179.97364833
 H     10   9   8     1.083357240894   118.46656286   180.03959641
 H     15  14  13     1.081170968006   121.18276889   179.95035163
 H     13  12   8     1.078691315689   116.41274262   179.99975979
 H     14  13  12     1.081581859474   118.72773221   179.98717296

---------------------------
INTERNAL COORDINATES (A.U.)
---------------------------
 C      0   0   0     0.000000000000     0.00000000     0.00000000
 C      1   0   0     2.627533706978     0.00000000     0.00000000
 C      2   1   0     2.605596032747   120.57565037     0.00000000
 C      3   2   1     2.711882567178   121.15174424   359.86658545
 C      4   3   2     2.667777240822   119.56696410     0.08973914
 C      1   2   3     2.697336542440   121.73104353     0.00000000
 O      6   1   2     2.400263494954   120.34570912   180.23395259
 C      5   4   3     2.709557825974   117.89784801   180.12612678
 C      8   5   4     2.654885766230   121.45006230   359.95431574
 C      9   8   5     2.669376365187   118.58737263     0.00000000
 C     10   9   8     2.592100132971   121.29745418     0.04986063
 N      8   5   4     2.592244438136   119.90402584   179.88368395
 C     12   8   5     2.574035780038   123.21431639   180.00317355
 C     13  12   8     2.621213612176   119.63048115     0.03771526
 C     14  13  12     2.609796391962   120.24488103     0.00000000
 H     12   8   5     1.931507548494   114.77846397     0.16491521
 H      1   2   3     2.045246797873   121.26297365   180.10355348
 H      2   1   3     2.046641285564   119.73131225   179.95464760
 H      3   2   1     2.045349805274   120.55778350   179.92195477
 H     11  10   9     2.044905149849   120.64230087   179.97364833
 H     10   9   8     2.047248490491   118.46656286   180.03959641
 H     15  14  13     2.043117033477   121.18276889   179.95035163
 H     13  12   8     2.038431169691   116.41274262   179.99975979
 H     14  13  12     2.043893505822   118.72773221   179.98717296

---------------------
BASIS SET INFORMATION
---------------------
There are 4 groups of distinct atoms

 Group   1 Type C   : 11s6p2d contracted to 5s3p2d pattern {62111/411/11}
 Group   2 Type O   : 11s6p2d contracted to 5s3p2d pattern {62111/411/11}
 Group   3 Type N   : 11s6p2d contracted to 5s3p2d pattern {62111/411/11}
 Group   4 Type H   : 5s1p contracted to 3s1p pattern {311/1}

Atom   0C    basis set group =>   1
Atom   1C    basis set group =>   1
Atom   2C    basis set group =>   1
Atom   3C    basis set group =>   1
Atom   4C    basis set group =>   1
Atom   5C    basis set group =>   1
Atom   6O    basis set group =>   2
Atom   7C    basis set group =>   1
Atom   8C    basis set group =>   1
Atom   9C    basis set group =>   1
Atom  10C    basis set group =>   1
Atom  11N    basis set group =>   3
Atom  12C    basis set group =>   1
Atom  13C    basis set group =>   1
Atom  14C    basis set group =>   1
Atom  15H    basis set group =>   4
Atom  16H    basis set group =>   4
Atom  17H    basis set group =>   4
Atom  18H    basis set group =>   4
Atom  19H    basis set group =>   4
Atom  20H    basis set group =>   4
Atom  21H    basis set group =>   4
Atom  22H    basis set group =>   4
Atom  23H    basis set group =>   4
---------------------------------
AUXILIARY/J BASIS SET INFORMATION
---------------------------------
There are 4 groups of distinct atoms

 Group   1 Type C   : 12s5p4d2f1g contracted to 6s4p3d1f1g pattern {711111/2111/211/2/1}
 Group   2 Type O   : 12s5p4d2f1g contracted to 6s4p3d1f1g pattern {711111/2111/211/2/1}
 Group   3 Type N   : 12s5p4d2f1g contracted to 6s4p3d1f1g pattern {711111/2111/211/2/1}
 Group   4 Type H   : 5s2p1d contracted to 3s1p1d pattern {311/2/1}

Atom   0C    basis set group =>   1
Atom   1C    basis set group =>   1
Atom   2C    basis set group =>   1
Atom   3C    basis set group =>   1
Atom   4C    basis set group =>   1
Atom   5C    basis set group =>   1
Atom   6O    basis set group =>   2
Atom   7C    basis set group =>   1
Atom   8C    basis set group =>   1
Atom   9C    basis set group =>   1
Atom  10C    basis set group =>   1
Atom  11N    basis set group =>   3
Atom  12C    basis set group =>   1
Atom  13C    basis set group =>   1
Atom  14C    basis set group =>   1
Atom  15H    basis set group =>   4
Atom  16H    basis set group =>   4
Atom  17H    basis set group =>   4
Atom  18H    basis set group =>   4
Atom  19H    basis set group =>   4
Atom  20H    basis set group =>   4
Atom  21H    basis set group =>   4
Atom  22H    basis set group =>   4
Atom  23H    basis set group =>   4
---------------------------------
AUXILIARY/C BASIS SET INFORMATION
---------------------------------
There are 4 groups of distinct atoms

 Group   1 Type C   : 8s6p5d3f1g contracted to 8s6p4d3f1g pattern {11111111/111111/2111/111/1}
 Group   2 Type O   : 8s6p5d3f1g contracted to 8s6p4d3f1g pattern {11111111/111111/2111/111/1}
 Group   3 Type N   : 8s6p5d3f1g contracted to 8s6p4d3f1g pattern {11111111/111111/2111/111/1}
 Group   4 Type H   : 4s3p2d contracted to 4s2p1d pattern {1111/21/2}

Atom   0C    basis set group =>   1
Atom   1C    basis set group =>   1
Atom   2C    basis set group =>   1
Atom   3C    basis set group =>   1
Atom   4C    basis set group =>   1
Atom   5C    basis set group =>   1
Atom   6O    basis set group =>   2
Atom   7C    basis set group =>   1
Atom   8C    basis set group =>   1
Atom   9C    basis set group =>   1
Atom  10C    basis set group =>   1
Atom  11N    basis set group =>   3
Atom  12C    basis set group =>   1
Atom  13C    basis set group =>   1
Atom  14C    basis set group =>   1
Atom  15H    basis set group =>   4
Atom  16H    basis set group =>   4
Atom  17H    basis set group =>   4
Atom  18H    basis set group =>   4
Atom  19H    basis set group =>   4
Atom  20H    basis set group =>   4
Atom  21H    basis set group =>   4
Atom  22H    basis set group =>   4
Atom  23H    basis set group =>   4
------------------------------------------------------------------------------
                           ORCA GTO INTEGRAL CALCULATION
                           -- RI-GTO INTEGRALS CHOSEN --
------------------------------------------------------------------------------
------------------------------------------------------------------------------
                   ___                                                        
                  /   \      - P O W E R E D   B Y -                         
                 /     \                                                     
                 |  |  |   _    _      __       _____    __    __             
                 |  |  |  | |  | |    /  \     |  _  \  |  |  /  |          
                  \  \/   | |  | |   /    \    | | | |  |  | /  /          
                 / \  \   | |__| |  /  /\  \   | |_| |  |  |/  /          
                |  |  |   |  __  | /  /__\  \  |    /   |      \           
                |  |  |   | |  | | |   __   |  |    \   |  |\   \          
                \     /   | |  | | |  |  |  |  | |\  \  |  | \   \       
                 \___/    |_|  |_| |__|  |__|  |_| \__\ |__|  \__/        
                                                                              
                      - O R C A' S   B I G   F R I E N D -                    
                                      &                                       
                       - I N T E G R A L  F E E D E R -                       
                                                                              
 v1 FN, 2020, v2 2021                                                         
------------------------------------------------------------------------------


Reading SHARK input file HBQ-Keto_ES.SHARKINP.tmp ... ok
----------------------
SHARK INTEGRAL PACKAGE
----------------------

Number of atoms                             ...     24
Number of basis functions                   ...    414
Number of shells                            ...    186
Maximum angular momentum                    ...      2
Integral batch strategy                     ... SHARK/LIBINT Hybrid
RI-J (if used) integral strategy            ... SPLIT-RIJ (Revised 2003 algorithm where possible)
Printlevel                                  ...      1
Contraction scheme used                     ... SEGMENTED contraction
Coulomb Range Separation                    ... NOT USED
Exchange Range Separation                   ... NOT USED
Finite Nucleus Model                        ... NOT USED
Auxiliary Coulomb fitting basis             ... AVAILABLE
   # of basis functions in Aux-J            ...    834
   # of shells in Aux-J                     ...    270
   Maximum angular momentum in Aux-J        ...      4
Auxiliary J/K fitting basis                 ... NOT available
Auxiliary Correlation fitting basis         ... AVAILABLE
   # of basis functions in Aux-C            ...   1275
   # of shells in Aux-C                     ...    393
   Maximum angular momentum in Aux-C        ...      4
Auxiliary 'external' fitting basis          ... NOT available
Integral threshold                          ...     2.500000e-11
Primitive cut-off                           ...     2.500000e-12
Primitive pair pre-selection threshold      ...     2.500000e-12

Calculating pre-screening integrals         ... done (  0.1 sec) Dimension = 186
Organizing shell pair data                  ... done (  0.6 sec)
Shell pair information
Total number of shell pairs                 ...     17391
Shell pairs after pre-screening             ...     14500
Total number of primitive shell pairs       ...     57987
Primitive shell pairs kept                  ...     33456
          la=0 lb=0:   4113 shell pairs
          la=1 lb=0:   4676 shell pairs
          la=1 lb=1:   1334 shell pairs
          la=2 lb=0:   2531 shell pairs
          la=2 lb=1:   1439 shell pairs
          la=2 lb=2:    407 shell pairs

Calculating one electron integrals          ... done (  0.1 sec)
Calculating RI/J V-Matrix + Cholesky decomp.... done (  0.4 sec)
Calculating RI/C V-Matrix + Cholesky decomp.... done (  0.4 sec)
Calculating Nuclear repulsion               ... done (  0.0 sec) ENN=    901.839844103729 Eh

SHARK setup successfully completed in   2.8 seconds

Maximum memory used throughout the entire GTOINT-calculation: 122.8 MB
-------------------------------------------------------------------------------
                                 ORCA SCF
-------------------------------------------------------------------------------

------------
SCF SETTINGS
------------
Hamiltonian:
 Density Functional     Method          .... DFT(GTOs)
 Exchange Functional    Exchange        .... B88
   X-Alpha parameter    XAlpha          ....  0.666667
   Becke's b parameter  XBeta           ....  0.004200
 Correlation Functional Correlation     .... LYP
 LDA part of GGA corr.  LDAOpt          .... VWN-3
 Gradients option       PostSCFGGA      .... off
 Hybrid DFT is turned on
   Fraction HF Exchange ScalHFX         ....  0.200000
   Scaling of DF-GGA-X  ScalDFX         ....  0.720000
   Scaling of DF-GGA-C  ScalDFC         ....  0.810000
   Scaling of DF-LDA-C  ScalLDAC        ....  1.000000
   Perturbative correction              ....  0.000000
   Density functional embedding theory  .... OFF
   NL short-range parameter             ....  4.800000
 RI-approximation to the Coulomb term is turned on
   Number of AuxJ basis functions       .... 834
   RIJ-COSX (HFX calculated with COS-X)).... on


General Settings:
 Integral files         IntName         .... HBQ-Keto_ES
 Hartree-Fock type      HFTyp           .... RHF
 Total Charge           Charge          ....    0
 Multiplicity           Mult            ....    1
 Number of Electrons    NEL             ....  102
 Basis Dimension        Dim             ....  414
 Nuclear Repulsion      ENuc            ....    901.8398441037 Eh

Convergence Acceleration:
 DIIS                   CNVDIIS         .... on
   Start iteration      DIISMaxIt       ....    12
   Startup error        DIISStart       ....  0.200000
   # of expansion vecs  DIISMaxEq       ....     5
   Bias factor          DIISBfac        ....   1.050
   Max. coefficient     DIISMaxC        ....  10.000
 Trust-Rad. Augm. Hess. CNVTRAH         .... auto
   Auto Start mean grad. ratio tolernc. ....  1.125000
   Auto Start start iteration           ....    20
   Auto Start num. interpolation iter.  ....    10
   Max. Number of Micro iterations      ....    16
   Max. Number of Macro iterations      .... Maxiter - #DIIS iter
   Number of Davidson start vectors     ....     2
   Converg. threshold I  (grad. norm)   ....   1.000e-05
   Converg. threshold II (energy diff.) ....   1.000e-08
   Grad. Scal. Fac. for Micro threshold ....   0.100
   Minimum threshold for Micro iter.    ....   0.010
   NR start threshold (gradient norm)   ....   0.001
   Initial trust radius                 ....   0.400
   Minimum AH scaling param. (alpha)    ....   1.000
   Maximum AH scaling param. (alpha)    .... 1000.000
   Orbital update algorithm             .... Taylor
   White noise on init. David. guess    .... on
   Maximum white noise                  ....   0.010
   Quad. conv. algorithm                .... NR
 SOSCF                  CNVSOSCF        .... on
   Start iteration      SOSCFMaxIt      ....   150
   Startup grad/error   SOSCFStart      ....  0.003300
 Level Shifting         CNVShift        .... on
   Level shift para.    LevelShift      ....    0.2500
   Turn off err/grad.   ShiftErr        ....    0.0010
 Zerner damping         CNVZerner       .... off
 Static damping         CNVDamp         .... on
   Fraction old density DampFac         ....    0.7000
   Max. Damping (<1)    DampMax         ....    0.9800
   Min. Damping (>=0)   DampMin         ....    0.0000
   Turn off err/grad.   DampErr         ....    0.1000
 Fernandez-Rico         CNVRico         .... off

SCF Procedure:
 Maximum # iterations   MaxIter         ....   125
 SCF integral mode      SCFMode         .... Direct
   Integral package                     .... SHARK and LIBINT hybrid scheme
 Reset frequency        DirectResetFreq ....    20
 Integral Threshold     Thresh          ....  2.500e-11 Eh
 Primitive CutOff       TCut            ....  2.500e-12 Eh

Convergence Tolerance:
 Convergence Check Mode ConvCheckMode   .... Total+1el-Energy
 Convergence forced     ConvForced      .... 1
 Energy Change          TolE            ....  1.000e-08 Eh
 1-El. energy change                    ....  1.000e-05 Eh
 Orbital Gradient       TolG            ....  1.000e-05
 Orbital Rotation angle TolX            ....  1.000e-05
 DIIS Error             TolErr          ....  5.000e-07


Diagonalization of the overlap matrix:
Smallest eigenvalue                        ... 4.619e-06
Time for diagonalization                   ...    0.027 sec
Threshold for overlap eigenvalues          ... 1.000e-08
Number of eigenvalues below threshold      ... 0
Time for construction of square roots      ...    0.058 sec
Total time needed                          ...    0.085 sec

Time for model grid setup =    0.789 sec

------------------------------
INITIAL GUESS: MODEL POTENTIAL
------------------------------
Loading Hartree-Fock densities                     ... done
Calculating cut-offs                               ... done
Initializing the effective Hamiltonian             ... done
Setting up the integral package (SHARK)            ... done
Starting the Coulomb interaction                   ... done (   0.9 sec)
Reading the grid                                   ... done
Mapping shells                                     ... done
Starting the XC term evaluation                    ... done (   0.9 sec)
  promolecular density results
     # of electrons  =    101.991030741
     EX              =    -84.320721181
     EC              =     -3.479953702
     EX+EC           =    -87.800674882
Transforming the Hamiltonian                       ... done (   0.0 sec)
Diagonalizing the Hamiltonian                      ... done (   0.0 sec)
Back transforming the eigenvectors                 ... done (   0.0 sec)
Now organizing SCF variables                       ... done
                      ------------------
                      INITIAL GUESS DONE (   2.6 sec)
                      ------------------
-------------------
DFT GRID GENERATION
-------------------

General Integration Accuracy     IntAcc      ... 4.388
Radial Grid Type                 RadialGrid  ... OptM3 with GC (2021)
Angular Grid (max. ang.)         AngularGrid ... 4 (Lebedev-302)
Angular grid pruning method      GridPruning ... 4 (adaptive)
Weight generation scheme         WeightScheme... Becke
Basis function cutoff            BFCut       ... 1.0000e-11
Integration weight cutoff        WCut        ... 1.0000e-14
Angular grids for H and He will be reduced by one unit
Partially contracted basis set               ... off
Rotationally invariant grid construction     ... off

Total number of grid points                  ...   118427
Total number of batches                      ...     1863
Average number of points per batch           ...       63
Average number of grid points per atom       ...     4934
Time for grid setup =    1.973 sec

--------------------
COSX GRID GENERATION
--------------------

GRIDX 1
-------
General Integration Accuracy     IntAcc      ... 3.816
Radial Grid Type                 RadialGrid  ... OptM3 with GC (2021)
Angular Grid (max. ang.)         AngularGrid ... 1 (Lebedev-50)
Angular grid pruning method      GridPruning ... 4 (adaptive)
Weight generation scheme         WeightScheme... Becke
Basis function cutoff            BFCut       ... 1.0000e-11
Integration weight cutoff        WCut        ... 1.0000e-14
Angular grids for H and He will be reduced by one unit
Partially contracted basis set               ... on
Rotationally invariant grid construction     ... off

Total number of grid points                  ...    15100
Total number of batches                      ...      244
Average number of points per batch           ...       61
Average number of grid points per atom       ...      629
UseSFitting                                  ... on

GRIDX 2
-------
General Integration Accuracy     IntAcc      ... 4.020
Radial Grid Type                 RadialGrid  ... OptM3 with GC (2021)
Angular Grid (max. ang.)         AngularGrid ... 2 (Lebedev-110)
Angular grid pruning method      GridPruning ... 4 (adaptive)
Weight generation scheme         WeightScheme... Becke
Basis function cutoff            BFCut       ... 1.0000e-11
Integration weight cutoff        WCut        ... 1.0000e-14
Angular grids for H and He will be reduced by one unit
Partially contracted basis set               ... on
Rotationally invariant grid construction     ... off

Total number of grid points                  ...    33217
Total number of batches                      ...      532
Average number of points per batch           ...       62
Average number of grid points per atom       ...     1384
UseSFitting                                  ... on

GRIDX 3
-------
General Integration Accuracy     IntAcc      ... 4.338
Radial Grid Type                 RadialGrid  ... OptM3 with GC (2021)
Angular Grid (max. ang.)         AngularGrid ... 3 (Lebedev-194)
Angular grid pruning method      GridPruning ... 4 (adaptive)
Weight generation scheme         WeightScheme... Becke
Basis function cutoff            BFCut       ... 1.0000e-11
Integration weight cutoff        WCut        ... 1.0000e-14
Angular grids for H and He will be reduced by one unit
Partially contracted basis set               ... on
Rotationally invariant grid construction     ... off

Total number of grid points                  ...    73142
Total number of batches                      ...     1157
Average number of points per batch           ...       63
Average number of grid points per atom       ...     3048
UseSFitting                                  ... on

Time for X-Grid setup             =    3.550 sec


--------------------
CPCM SOLVATION MODEL
--------------------
CPCM parameters:
  Epsilon                                         ...      80.4000
  Refrac                                          ...       1.3300
  Rsolv                                           ...       1.3000
  Surface type                                    ... GAUSSIAN VDW
  Epsilon function type                           ...         CPCM
Radii:
 Radius for C  used is    3.8550 Bohr (=   2.0400 Ang.)
 Radius for O  used is    3.4469 Bohr (=   1.8240 Ang.)
 Radius for N  used is    3.5149 Bohr (=   1.8600 Ang.)
 Radius for H  used is    2.4944 Bohr (=   1.3200 Ang.)
Calculating surface                               ...        done! (  0.0s)
GEPOL surface points                              ...         1263
GEPOL Volume                                      ...    1550.7104
GEPOL Surface-area                                ...     789.7012
Calculating surface distance matrix               ...        done! (  0.0s)
Performing Cholesky decomposition & store         ...        done! (  0.1s)
Overall time for CPCM initialization              ...                 0.2s
--------------
SCF ITERATIONS
--------------
ITER       Energy         Delta-E        Max-DP      RMS-DP      [F,P]     Damp
               ***  Starting incremental Fock matrix formation  ***
  0   -630.6783945185   0.000000000000 0.98141779  0.00831421  0.3314174 0.7000
  1   -630.8351024872  -0.156707968722 0.95034045  0.00789553  0.1311799 0.7000
                               ***Turning on DIIS***
  2   -630.9005540659  -0.065451578667 0.91390834  0.00811090  0.0403933 0.0000
  3   -631.0015089046  -0.100954838655 0.99188836  0.00811598  0.0702726 0.0000
  4   -631.0235063172  -0.021997412617 0.19301908  0.00163083  0.0212049 0.0000
  5   -631.0249289283  -0.001422611136 0.12995034  0.00105617  0.0123486 0.0000
                      *** Initiating the SOSCF procedure ***
                           *** Shutting down DIIS ***
                      *** Re-Reading the Fockian *** 
                      *** Removing any level shift *** 
ITER      Energy       Delta-E        Grad      Rot      Max-DP    RMS-DP
  6   -631.02512500  -0.0001960739  0.000397  0.000397  0.064039  0.000508
               *** Restarting incremental Fock matrix formation ***
  7   -631.02508056   0.0000444408  0.000283  0.002075  0.007529  0.000078
  8   -631.02507153   0.0000090286  0.000500  0.000867  0.001600  0.000024
  9   -631.02508560  -0.0000140700  0.000034  0.000175  0.000630  0.000005
 10   -631.02508549   0.0000001102  0.000056  0.000070  0.000155  0.000002
 11   -631.02508571  -0.0000002154  0.000004  0.000016  0.000782  0.000006
 12   -631.02508572  -0.0000000070  0.000005  0.000016  0.000547  0.000004
                  ***Gradient check signals convergence***
              ***Rediagonalizing the Fockian in SOSCF/NRSCF***

               *****************************************************
               *                     SUCCESS                       *
               *           SCF CONVERGED AFTER  13 CYCLES          *
               *****************************************************

Old exchange energy                            =    -17.096142471 Eh
New exchange energy                            =    -17.096110905 Eh
Exchange energy change after final integration =      0.000031566 Eh
Total energy after final integration           =   -631.025054146 Eh
Final COS-X integration done in                =    54.637 sec

----------------
TOTAL SCF ENERGY
----------------

Total Energy       :         -631.02505415 Eh          -17171.06468 eV

Components:
Nuclear Repulsion  :          901.83984410 Eh           24540.30976 eV
Electronic Energy  :        -1532.86489825 Eh          -41711.37445 eV
One Electron Energy:        -2643.93284605 Eh          -71945.07036 eV
Two Electron Energy:         1111.06794780 Eh           30233.69591 eV
Max COSX asymmetry :            0.00000203 Eh               0.00006 eV
CPCM Dielectric    :           -0.02968333 Eh              -0.80772 eV

Virial components:
Potential Energy   :        -1258.81440714 Eh          -34254.08146 eV
Kinetic Energy     :          627.78935300 Eh           17083.01678 eV
Virial Ratio       :            2.00515412


DFT components:
N(Alpha)           :       51.000062146164 electrons
N(Beta)            :       51.000062146164 electrons
N(Total)           :      102.000124292328 electrons
E(X)               :      -67.978297126901 Eh       
E(C)               :       -4.480492587548 Eh       
E(XC)              :      -72.458789714449 Eh       
DFET-embed. en.    :        0.000000000000 Eh       
CPCM Solvation Model Properties:
Surface-charge          :           -0.02848154
Charge-correction       :           -0.00027410 Eh              -0.00746 eV
Free-energy (cav+disp)  :  This term is not implemented in the current solvation scheme

---------------
SCF CONVERGENCE
---------------

  Last Energy change         ...    3.0388e-09  Tolerance :   1.0000e-08
  Last MAX-Density change    ...    1.8874e-15  Tolerance :   1.0000e-07
  Last RMS-Density change    ...    2.1394e-17  Tolerance :   5.0000e-09
  Last Orbital Gradient      ...    1.2128e-06  Tolerance :   1.0000e-05
  Last Orbital Rotation      ...    2.7298e-06  Tolerance :   1.0000e-05

             **** THE GBW FILE WAS UPDATED (HBQ-Keto_ES.gbw) ****
             **** DENSITY HBQ-Keto_ES.scfp WAS UPDATED ****
             **** ENERGY FILE WAS UPDATED (HBQ-Keto_ES.en.tmp) ****
             **** THE GBW FILE WAS UPDATED (HBQ-Keto_ES.gbw) ****
             **** DENSITY HBQ-Keto_ES.scfp WAS UPDATED ****
----------------
ORBITAL ENERGIES
----------------

  NO   OCC          E(Eh)            E(eV) 
   0   2.0000     -19.073679      -519.0212 
   1   2.0000     -14.400838      -391.8667 
   2   2.0000     -10.251567      -278.9593 
   3   2.0000     -10.251346      -278.9533 
   4   2.0000     -10.229140      -278.3491 
   5   2.0000     -10.217886      -278.0428 
   6   2.0000     -10.213566      -277.9252 
   7   2.0000     -10.201796      -277.6050 
   8   2.0000     -10.192597      -277.3547 
   9   2.0000     -10.189190      -277.2620 
  10   2.0000     -10.187214      -277.2082 
  11   2.0000     -10.186076      -277.1772 
  12   2.0000     -10.173601      -276.8378 
  13   2.0000     -10.161640      -276.5123 
  14   2.0000     -10.155737      -276.3517 
  15   2.0000      -1.013456       -27.5776 
  16   2.0000      -0.989791       -26.9336 
  17   2.0000      -0.879552       -23.9338 
  18   2.0000      -0.842064       -22.9137 
  19   2.0000      -0.818667       -22.2771 
  20   2.0000      -0.780497       -21.2384 
  21   2.0000      -0.751895       -20.4601 
  22   2.0000      -0.712497       -19.3880 
  23   2.0000      -0.677062       -18.4238 
  24   2.0000      -0.661522       -18.0009 
  25   2.0000      -0.640319       -17.4240 
  26   2.0000      -0.599062       -16.3013 
  27   2.0000      -0.568349       -15.4656 
  28   2.0000      -0.546617       -14.8742 
  29   2.0000      -0.527938       -14.3659 
  30   2.0000      -0.515111       -14.0169 
  31   2.0000      -0.490521       -13.3477 
  32   2.0000      -0.483692       -13.1619 
  33   2.0000      -0.466493       -12.6939 
  34   2.0000      -0.456828       -12.4309 
  35   2.0000      -0.446791       -12.1578 
  36   2.0000      -0.435390       -11.8476 
  37   2.0000      -0.421479       -11.4690 
  38   2.0000      -0.404451       -11.0057 
  39   2.0000      -0.397198       -10.8083 
  40   2.0000      -0.394485       -10.7345 
  41   2.0000      -0.385197       -10.4817 
  42   2.0000      -0.365335        -9.9413 
  43   2.0000      -0.356499        -9.7008 
  44   2.0000      -0.353047        -9.6069 
  45   2.0000      -0.329111        -8.9556 
  46   2.0000      -0.317671        -8.6443 
  47   2.0000      -0.272121        -7.4048 
  48   2.0000      -0.251822        -6.8524 
  49   2.0000      -0.244006        -6.6397 
  50   2.0000      -0.189337        -5.1521 
  51   0.0000      -0.091420        -2.4877 
  52   0.0000      -0.050681        -1.3791 
  53   0.0000      -0.020846        -0.5672 
  54   0.0000       0.021332         0.5805 
  55   0.0000       0.051527         1.4021 
  56   0.0000       0.052412         1.4262 
  57   0.0000       0.061918         1.6849 
  58   0.0000       0.071895         1.9564 
  59   0.0000       0.079472         2.1625 
  60   0.0000       0.087823         2.3898 
  61   0.0000       0.097005         2.6396 
  62   0.0000       0.104338         2.8392 
  63   0.0000       0.107804         2.9335 
  64   0.0000       0.110487         3.0065 
  65   0.0000       0.123665         3.3651 
  66   0.0000       0.133303         3.6274 
  67   0.0000       0.146242         3.9794 
  68   0.0000       0.158470         4.3122 
  69   0.0000       0.173492         4.7210 
  70   0.0000       0.175120         4.7652 
  71   0.0000       0.177003         4.8165 
  72   0.0000       0.179960         4.8970 
  73   0.0000       0.196715         5.3529 
  74   0.0000       0.208670         5.6782 
  75   0.0000       0.210490         5.7277 
  76   0.0000       0.212824         5.7912 
  77   0.0000       0.218144         5.9360 
  78   0.0000       0.219496         5.9728 
  79   0.0000       0.227347         6.1864 
  80   0.0000       0.239154         6.5077 
  81   0.0000       0.242887         6.6093 
  82   0.0000       0.249673         6.7939 
  83   0.0000       0.256908         6.9908 
  84   0.0000       0.258796         7.0422 
  85   0.0000       0.263823         7.1790 
  86   0.0000       0.270372         7.3572 
  87   0.0000       0.278206         7.5704 
  88   0.0000       0.285782         7.7765 
  89   0.0000       0.289381         7.8745 
  90   0.0000       0.298310         8.1174 
  91   0.0000       0.299020         8.1367 
  92   0.0000       0.312702         8.5091 
  93   0.0000       0.312789         8.5114 
  94   0.0000       0.322700         8.7811 
  95   0.0000       0.334039         9.0897 
  96   0.0000       0.340587         9.2678 
  97   0.0000       0.343887         9.3576 
  98   0.0000       0.350637         9.5413 
  99   0.0000       0.354829         9.6554 
 100   0.0000       0.364439         9.9169 
 101   0.0000       0.377548        10.2736 
 102   0.0000       0.385267        10.4836 
 103   0.0000       0.392982        10.6936 
 104   0.0000       0.395022        10.7491 
 105   0.0000       0.401224        10.9179 
 106   0.0000       0.403639        10.9836 
 107   0.0000       0.413171        11.2430 
 108   0.0000       0.427797        11.6409 
 109   0.0000       0.428041        11.6476 
 110   0.0000       0.435733        11.8569 
 111   0.0000       0.440219        11.9790 
 112   0.0000       0.444882        12.1059 
 113   0.0000       0.455110        12.3842 
 114   0.0000       0.462641        12.5891 
 115   0.0000       0.470528        12.8037 
 116   0.0000       0.470957        12.8154 
 117   0.0000       0.477947        13.0056 
 118   0.0000       0.485290        13.2054 
 119   0.0000       0.497476        13.5370 
 120   0.0000       0.500246        13.6124 
 121   0.0000       0.505278        13.7493 
 122   0.0000       0.512875        13.9560 
 123   0.0000       0.517845        14.0913 
 124   0.0000       0.522005        14.2045 
 125   0.0000       0.541141        14.7252 
 126   0.0000       0.546478        14.8704 
 127   0.0000       0.567196        15.4342 
 128   0.0000       0.585247        15.9254 
 129   0.0000       0.586574        15.9615 
 130   0.0000       0.600491        16.3402 
 131   0.0000       0.602671        16.3995 
 132   0.0000       0.610477        16.6119 
 133   0.0000       0.612218        16.6593 
 134   0.0000       0.625420        17.0186 
 135   0.0000       0.642362        17.4795 
 136   0.0000       0.650220        17.6934 
 137   0.0000       0.655487        17.8367 
 138   0.0000       0.677031        18.4229 
 139   0.0000       0.681615        18.5477 
 140   0.0000       0.685768        18.6607 
 141   0.0000       0.686171        18.6717 
 142   0.0000       0.689853        18.7719 
 143   0.0000       0.705582        19.1999 
 144   0.0000       0.711343        19.3566 
 145   0.0000       0.723011        19.6741 
 146   0.0000       0.734225        19.9793 
 147   0.0000       0.736913        20.0524 
 148   0.0000       0.745002        20.2725 
 149   0.0000       0.755272        20.5520 
 150   0.0000       0.757205        20.6046 
 151   0.0000       0.765050        20.8181 
 152   0.0000       0.780215        21.2307 
 153   0.0000       0.785722        21.3806 
 154   0.0000       0.798888        21.7388 
 155   0.0000       0.799463        21.7545 
 156   0.0000       0.803420        21.8622 
 157   0.0000       0.821525        22.3548 
 158   0.0000       0.829592        22.5743 
 159   0.0000       0.838509        22.8170 
 160   0.0000       0.853387        23.2218 
 161   0.0000       0.856421        23.3044 
 162   0.0000       0.864091        23.5131 
 163   0.0000       0.884675        24.0732 
 164   0.0000       0.884957        24.0809 
 165   0.0000       0.891780        24.2666 
 166   0.0000       0.914992        24.8982 
 167   0.0000       0.922725        25.1086 
 168   0.0000       0.931584        25.3497 
 169   0.0000       0.959808        26.1177 
 170   0.0000       0.974017        26.5043 
 171   0.0000       0.975608        26.5476 
 172   0.0000       0.977616        26.6023 
 173   0.0000       0.996011        27.1028 
 174   0.0000       1.011807        27.5327 
 175   0.0000       1.028117        27.9765 
 176   0.0000       1.028823        27.9957 
 177   0.0000       1.046140        28.4669 
 178   0.0000       1.068369        29.0718 
 179   0.0000       1.103071        30.0161 
 180   0.0000       1.114055        30.3150 
 181   0.0000       1.136120        30.9154 
 182   0.0000       1.151225        31.3264 
 183   0.0000       1.151763        31.3411 
 184   0.0000       1.156136        31.4601 
 185   0.0000       1.174888        31.9703 
 186   0.0000       1.179148        32.0862 
 187   0.0000       1.204476        32.7754 
 188   0.0000       1.213360        33.0172 
 189   0.0000       1.221658        33.2430 
 190   0.0000       1.233128        33.5551 
 191   0.0000       1.236845        33.6563 
 192   0.0000       1.258685        34.2506 
 193   0.0000       1.263961        34.3941 
 194   0.0000       1.271271        34.5930 
 195   0.0000       1.279337        34.8125 
 196   0.0000       1.300422        35.3863 
 197   0.0000       1.303037        35.4574 
 198   0.0000       1.316624        35.8272 
 199   0.0000       1.324151        36.0320 
 200   0.0000       1.328406        36.1478 
 201   0.0000       1.340527        36.4776 
 202   0.0000       1.356132        36.9022 
 203   0.0000       1.364129        37.1198 
 204   0.0000       1.397591        38.0304 
 205   0.0000       1.405039        38.2331 
 206   0.0000       1.411485        38.4085 
 207   0.0000       1.419429        38.6246 
 208   0.0000       1.437422        39.1142 
 209   0.0000       1.446670        39.3659 
 210   0.0000       1.458700        39.6932 
 211   0.0000       1.460892        39.7529 
 212   0.0000       1.481316        40.3087 
 213   0.0000       1.487692        40.4822 
 214   0.0000       1.489184        40.5228 
 215   0.0000       1.507238        41.0140 
 216   0.0000       1.521323        41.3973 
 217   0.0000       1.523571        41.4585 
 218   0.0000       1.532529        41.7022 
 219   0.0000       1.541117        41.9359 
 220   0.0000       1.563498        42.5450 
 221   0.0000       1.570828        42.7444 
 222   0.0000       1.582158        43.0527 
 223   0.0000       1.586206        43.1629 
 224   0.0000       1.597714        43.4760 
 225   0.0000       1.620082        44.0847 
 226   0.0000       1.623872        44.1878 
 227   0.0000       1.641185        44.6589 
 228   0.0000       1.653049        44.9817 
 229   0.0000       1.660935        45.1963 
 230   0.0000       1.670758        45.4636 
 231   0.0000       1.675576        45.5947 
 232   0.0000       1.677318        45.6421 
 233   0.0000       1.682829        45.7921 
 234   0.0000       1.694248        46.1028 
 235   0.0000       1.711029        46.5595 
 236   0.0000       1.739904        47.3452 
 237   0.0000       1.754188        47.7339 
 238   0.0000       1.757649        47.8281 
 239   0.0000       1.771138        48.1951 
 240   0.0000       1.777213        48.3604 
 241   0.0000       1.798437        48.9380 
 242   0.0000       1.814761        49.3822 
 243   0.0000       1.824449        49.6458 
 244   0.0000       1.839478        50.0548 
 245   0.0000       1.865440        50.7612 
 246   0.0000       1.867262        50.8108 
 247   0.0000       1.890671        51.4478 
 248   0.0000       1.918133        52.1951 
 249   0.0000       1.936467        52.6939 
 250   0.0000       1.945501        52.9398 
 251   0.0000       1.983813        53.9823 
 252   0.0000       1.985394        54.0253 
 253   0.0000       2.004953        54.5575 
 254   0.0000       2.013283        54.7842 
 255   0.0000       2.045551        55.6623 
 256   0.0000       2.065734        56.2115 
 257   0.0000       2.089158        56.8489 
 258   0.0000       2.091071        56.9009 
 259   0.0000       2.149497        58.4908 
 260   0.0000       2.173847        59.1534 
 261   0.0000       2.199174        59.8426 
 262   0.0000       2.222845        60.4867 
 263   0.0000       2.228170        60.6316 
 264   0.0000       2.250104        61.2284 
 265   0.0000       2.266190        61.6662 
 266   0.0000       2.271601        61.8134 
 267   0.0000       2.280396        62.0527 
 268   0.0000       2.290093        62.3166 
 269   0.0000       2.299997        62.5861 
 270   0.0000       2.307175        62.7814 
 271   0.0000       2.326306        63.3020 
 272   0.0000       2.331476        63.4427 
 273   0.0000       2.347682        63.8837 
 274   0.0000       2.357258        64.1442 
 275   0.0000       2.365208        64.3606 
 276   0.0000       2.374050        64.6012 
 277   0.0000       2.398636        65.2702 
 278   0.0000       2.431318        66.1595 
 279   0.0000       2.433078        66.2074 
 280   0.0000       2.464465        67.0615 
 281   0.0000       2.523005        68.6545 
 282   0.0000       2.541134        69.1478 
 283   0.0000       2.580795        70.2270 
 284   0.0000       2.596067        70.6426 
 285   0.0000       2.613676        71.1217 
 286   0.0000       2.632522        71.6346 
 287   0.0000       2.646688        72.0200 
 288   0.0000       2.656691        72.2922 
 289   0.0000       2.671822        72.7040 
 290   0.0000       2.689834        73.1941 
 291   0.0000       2.692367        73.2630 
 292   0.0000       2.706935        73.6595 
 293   0.0000       2.713248        73.8312 
 294   0.0000       2.720493        74.0284 
 295   0.0000       2.734538        74.4106 
 296   0.0000       2.751069        74.8604 
 297   0.0000       2.786000        75.8109 
 298   0.0000       2.807305        76.3906 
 299   0.0000       2.813904        76.5702 
 300   0.0000       2.834198        77.1225 
 301   0.0000       2.838087        77.2283 
 302   0.0000       2.843420        77.3734 
 303   0.0000       2.853869        77.6577 
 304   0.0000       2.863278        77.9137 
 305   0.0000       2.871298        78.1320 
 306   0.0000       2.894637        78.7671 
 307   0.0000       2.898305        78.8669 
 308   0.0000       2.909302        79.1661 
 309   0.0000       2.926790        79.6420 
 310   0.0000       2.933209        79.8167 
 311   0.0000       2.950837        80.2964 
 312   0.0000       2.954850        80.4056 
 313   0.0000       2.963489        80.6406 
 314   0.0000       2.965328        80.6907 
 315   0.0000       2.985302        81.2342 
 316   0.0000       3.000817        81.6564 
 317   0.0000       3.006938        81.8229 
 318   0.0000       3.020882        82.2024 
 319   0.0000       3.040960        82.7487 
 320   0.0000       3.048953        82.9662 
 321   0.0000       3.049168        82.9721 
 322   0.0000       3.069170        83.5164 
 323   0.0000       3.080409        83.8222 
 324   0.0000       3.098188        84.3060 
 325   0.0000       3.103818        84.4592 
 326   0.0000       3.117701        84.8370 
 327   0.0000       3.126947        85.0886 
 328   0.0000       3.142543        85.5130 
 329   0.0000       3.143241        85.5319 
 330   0.0000       3.168848        86.2287 
 331   0.0000       3.176280        86.4310 
 332   0.0000       3.203487        87.1713 
 333   0.0000       3.208878        87.3180 
 334   0.0000       3.212033        87.4039 
 335   0.0000       3.232468        87.9599 
 336   0.0000       3.242816        88.2415 
 337   0.0000       3.253624        88.5356 
 338   0.0000       3.260133        88.7127 
 339   0.0000       3.270414        88.9925 
 340   0.0000       3.294829        89.6569 
 341   0.0000       3.309120        90.0457 
 342   0.0000       3.315647        90.2234 
 343   0.0000       3.323968        90.4498 
 344   0.0000       3.343704        90.9868 
 345   0.0000       3.366231        91.5998 
 346   0.0000       3.379229        91.9535 
 347   0.0000       3.382492        92.0423 
 348   0.0000       3.403447        92.6125 
 349   0.0000       3.404619        92.6444 
 350   0.0000       3.432995        93.4165 
 351   0.0000       3.445010        93.7435 
 352   0.0000       3.454176        93.9929 
 353   0.0000       3.473275        94.5126 
 354   0.0000       3.482893        94.7743 
 355   0.0000       3.506598        95.4194 
 356   0.0000       3.514222        95.6268 
 357   0.0000       3.517819        95.7247 
 358   0.0000       3.561489        96.9130 
 359   0.0000       3.601204        97.9937 
 360   0.0000       3.617000        98.4236 
 361   0.0000       3.623660        98.6048 
 362   0.0000       3.645930        99.2108 
 363   0.0000       3.658888        99.5634 
 364   0.0000       3.663939        99.7008 
 365   0.0000       3.678278       100.0910 
 366   0.0000       3.705231       100.8245 
 367   0.0000       3.723418       101.3193 
 368   0.0000       3.749232       102.0218 
 369   0.0000       3.783219       102.9466 
 370   0.0000       3.789596       103.1202 
 371   0.0000       3.855673       104.9182 
 372   0.0000       3.863681       105.1361 
 373   0.0000       3.906691       106.3065 
 374   0.0000       3.946089       107.3785 
 375   0.0000       3.956436       107.6601 
 376   0.0000       3.969429       108.0136 
 377   0.0000       4.017869       109.3318 
 378   0.0000       4.055825       110.3646 
 379   0.0000       4.141590       112.6984 
 380   0.0000       4.155388       113.0739 
 381   0.0000       4.236720       115.2870 
 382   0.0000       4.277990       116.4100 
 383   0.0000       4.309190       117.2590 
 384   0.0000       4.350500       118.3831 
 385   0.0000       4.418477       120.2329 
 386   0.0000       4.526639       123.1761 
 387   0.0000       4.603228       125.2602 
 388   0.0000       4.644260       126.3767 
 389   0.0000       4.723201       128.5248 
 390   0.0000       4.781128       130.1011 
 391   0.0000       4.977972       135.4575 
 392   0.0000       5.382029       146.4525 
 393   0.0000       5.543822       150.8551 
 394   0.0000       6.358603       173.0264 
 395   0.0000       6.564950       178.6414 
 396   0.0000       6.598181       179.5456 
 397   0.0000       6.796181       184.9335 
 398   0.0000       6.853021       186.4802 
 399   0.0000      21.612319       588.1011 
 400   0.0000      21.900503       595.9430 
 401   0.0000      21.981585       598.1493 
 402   0.0000      22.185978       603.7111 
 403   0.0000      22.253978       605.5615 
 404   0.0000      22.317381       607.2868 
 405   0.0000      22.373144       608.8042 
 406   0.0000      22.422112       610.1367 
 407   0.0000      22.450739       610.9157 
 408   0.0000      22.561944       613.9417 
 409   0.0000      22.651811       616.3871 
 410   0.0000      22.950367       624.5112 
 411   0.0000      23.460343       638.3884 
 412   0.0000      32.351568       880.3309 
 413   0.0000      43.886611      1194.2154 

                    ********************************
                    * MULLIKEN POPULATION ANALYSIS *
                    ********************************

-----------------------
MULLIKEN ATOMIC CHARGES
-----------------------
   0 C :   -0.240862
   1 C :   -0.062158
   2 C :   -0.290530
   3 C :    0.289394
   4 C :    0.018603
   5 C :    0.317171
   6 O :   -0.735486
   7 C :    0.046464
   8 C :    0.323092
   9 C :   -0.248975
  10 C :   -0.236772
  11 N :   -0.204509
  12 C :    0.093618
  13 C :   -0.044179
  14 C :   -0.186871
  15 H :    0.215321
  16 H :    0.068990
  17 H :    0.101302
  18 H :    0.101044
  19 H :    0.111698
  20 H :    0.109212
  21 H :    0.142624
  22 H :    0.172998
  23 H :    0.138811
Sum of atomic charges:    0.0000000

--------------------------------
MULLIKEN REDUCED ORBITAL CHARGES
--------------------------------
  0 C s       :     3.283536  s :     3.283536
      pz      :     1.077554  p :     2.887885
      px      :     0.913114
      py      :     0.897217
      dz2     :     0.006598  d :     0.069440
      dxz     :     0.006642
      dyz     :     0.015867
      dx2y2   :     0.018767
      dxy     :     0.021567
  1 C s       :     3.158242  s :     3.158242
      pz      :     0.935866  p :     2.809481
      px      :     0.939255
      py      :     0.934360
      dz2     :     0.005300  d :     0.094435
      dxz     :     0.010407
      dyz     :     0.024016
      dx2y2   :     0.027345
      dxy     :     0.027367
  2 C s       :     3.228069  s :     3.228069
      pz      :     1.079694  p :     2.981496
      px      :     0.948218
      py      :     0.953584
      dz2     :     0.005669  d :     0.080965
      dxz     :     0.021042
      dyz     :     0.005354
      dx2y2   :     0.026154
      dxy     :     0.022747
  3 C s       :     3.017849  s :     3.017849
      pz      :     0.899917  p :     2.530882
      px      :     0.806644
      py      :     0.824321
      dz2     :     0.007474  d :     0.161876
      dxz     :     0.026333
      dyz     :     0.028700
      dx2y2   :     0.048807
      dxy     :     0.050562
  4 C s       :     3.336525  s :     3.336525
      pz      :     1.054829  p :     2.520034
      px      :     0.730726
      py      :     0.734479
      dz2     :     0.010181  d :     0.124838
      dxz     :     0.018091
      dyz     :     0.020642
      dx2y2   :     0.042484
      dxy     :     0.033440
  5 C s       :     2.916937  s :     2.916937
      pz      :     0.837409  p :     2.549202
      px      :     0.913266
      py      :     0.798527
      dz2     :     0.005683  d :     0.216691
      dxz     :     0.019700
      dyz     :     0.048010
      dx2y2   :     0.032249
      dxy     :     0.111049
  6 O s       :     3.871961  s :     3.871961
      pz      :     1.604771  p :     4.833377
      px      :     1.819255
      py      :     1.409351
      dz2     :     0.003238  d :     0.030148
      dxz     :     0.000172
      dyz     :     0.009463
      dx2y2   :     0.010814
      dxy     :     0.006462
  7 C s       :     3.024643  s :     3.024643
      pz      :     0.905240  p :     2.757591
      px      :     1.063565
      py      :     0.788785
      dz2     :     0.005498  d :     0.171303
      dxz     :     0.030211
      dyz     :     0.032453
      dx2y2   :     0.049094
      dxy     :     0.054047
  8 C s       :     3.024438  s :     3.024438
      pz      :     0.927641  p :     2.505397
      px      :     0.838895
      py      :     0.738860
      dz2     :     0.008894  d :     0.147073
      dxz     :     0.018492
      dyz     :     0.028633
      dx2y2   :     0.047098
      dxy     :     0.043957
  9 C s       :     3.287163  s :     3.287163
      pz      :     0.990660  p :     2.873525
      px      :     0.929760
      py      :     0.953105
      dz2     :     0.005666  d :     0.088288
      dxz     :     0.010806
      dyz     :     0.018275
      dx2y2   :     0.031066
      dxy     :     0.022474
 10 C s       :     3.281015  s :     3.281015
      pz      :     0.944898  p :     2.865813
      px      :     0.982312
      py      :     0.938602
      dz2     :     0.005238  d :     0.089945
      dxz     :     0.024626
      dyz     :     0.005508
      dx2y2   :     0.029263
      dxy     :     0.025310
 11 N s       :     3.456691  s :     3.456691
      pz      :     1.400189  p :     3.673812
      px      :     1.093886
      py      :     1.179737
      dz2     :     0.005171  d :     0.074006
      dxz     :     0.008324
      dyz     :     0.015024
      dx2y2   :     0.024137
      dxy     :     0.021350
 12 C s       :     3.141149  s :     3.141149
      pz      :     0.885014  p :     2.666358
      px      :     0.797249
      py      :     0.984095
      dz2     :     0.004177  d :     0.098876
      dxz     :     0.029994
      dyz     :     0.007385
      dx2y2   :     0.030164
      dxy     :     0.027155
 13 C s       :     3.128417  s :     3.128417
      pz      :     0.981868  p :     2.835885
      px      :     0.926854
      py      :     0.927162
      dz2     :     0.006342  d :     0.079877
      dxz     :     0.008789
      dyz     :     0.016061
      dx2y2   :     0.019684
      dxy     :     0.029001
 14 C s       :     3.245315  s :     3.245315
      pz      :     0.882454  p :     2.857659
      px      :     1.000310
      py      :     0.974895
      dz2     :     0.004816  d :     0.083897
      dxz     :     0.009942
      dyz     :     0.019159
      dx2y2   :     0.020429
      dxy     :     0.029551
 15 H s       :     0.729353  s :     0.729353
      pz      :     0.009812  p :     0.055327
      px      :     0.035755
      py      :     0.009760
 16 H s       :     0.904640  s :     0.904640
      pz      :     0.006172  p :     0.026370
      px      :     0.013292
      py      :     0.006905
 17 H s       :     0.873004  s :     0.873004
      pz      :     0.005025  p :     0.025693
      px      :     0.013837
      py      :     0.006831
 18 H s       :     0.872289  s :     0.872289
      pz      :     0.006334  p :     0.026667
      px      :     0.003374
      py      :     0.016959
 19 H s       :     0.862070  s :     0.862070
      pz      :     0.005087  p :     0.026232
      px      :     0.003421
      py      :     0.017724
 20 H s       :     0.864478  s :     0.864478
      pz      :     0.005426  p :     0.026310
      px      :     0.013522
      py      :     0.007362
 21 H s       :     0.831075  s :     0.831075
      pz      :     0.004608  p :     0.026301
      px      :     0.014407
      py      :     0.007285
 22 H s       :     0.801037  s :     0.801037
      pz      :     0.004679  p :     0.025965
      px      :     0.002476
      py      :     0.018810
 23 H s       :     0.834594  s :     0.834594
      pz      :     0.005343  p :     0.026595
      px      :     0.014152
      py      :     0.007100


                     *******************************
                     * LOEWDIN POPULATION ANALYSIS *
                     *******************************

----------------------
LOEWDIN ATOMIC CHARGES
----------------------
   0 C :   -0.154372
   1 C :   -0.147184
   2 C :   -0.149882
   3 C :   -0.098656
   4 C :   -0.055558
   5 C :   -0.249482
   6 O :   -0.212877
   7 C :   -0.036366
   8 C :   -0.084096
   9 C :   -0.095381
  10 C :   -0.073486
  11 N :    0.201268
  12 C :   -0.056391
  13 C :   -0.125652
  14 C :   -0.020750
  15 H :    0.198192
  16 H :    0.129116
  17 H :    0.138242
  18 H :    0.134765
  19 H :    0.147462
  20 H :    0.148205
  21 H :    0.154506
  22 H :    0.154219
  23 H :    0.154158

-------------------------------
LOEWDIN REDUCED ORBITAL CHARGES
-------------------------------
  0 C s       :     2.786265  s :     2.786265
      pz      :     0.977430  p :     3.027657
      px      :     0.997745
      py      :     1.052482
      dz2     :     0.025432  d :     0.340450
      dxz     :     0.020123
      dyz     :     0.051392
      dx2y2   :     0.101113
      dxy     :     0.142390
  1 C s       :     2.780100  s :     2.780100
      pz      :     0.875312  p :     2.968419
      px      :     1.028066
      py      :     1.065042
      dz2     :     0.023846  d :     0.398666
      dxz     :     0.032806
      dyz     :     0.079401
      dx2y2   :     0.117110
      dxy     :     0.145502
  2 C s       :     2.772562  s :     2.772562
      pz      :     0.983236  p :     3.019572
      px      :     1.038715
      py      :     0.997621
      dz2     :     0.023644  d :     0.357748
      dxz     :     0.066862
      dyz     :     0.013587
      dx2y2   :     0.154074
      dxy     :     0.099580
  3 C s       :     2.712079  s :     2.712079
      pz      :     0.843003  p :     2.872760
      px      :     1.010473
      py      :     1.019283
      dz2     :     0.031505  d :     0.513818
      dxz     :     0.074108
      dyz     :     0.084645
      dx2y2   :     0.158782
      dxy     :     0.164778
  4 C s       :     2.710986  s :     2.710986
      pz      :     0.937860  p :     2.901539
      px      :     0.967045
      py      :     0.996634
      dz2     :     0.032381  d :     0.443033
      dxz     :     0.053890
      dyz     :     0.060227
      dx2y2   :     0.142248
      dxy     :     0.154287
  5 C s       :     2.739024  s :     2.739024
      pz      :     0.804262  p :     2.765410
      px      :     1.020074
      py      :     0.941073
      dz2     :     0.044905  d :     0.745048
      dxz     :     0.061211
      dyz     :     0.159288
      dx2y2   :     0.201681
      dxy     :     0.277964
  6 O s       :     3.452111  s :     3.452111
      pz      :     1.528293  p :     4.697268
      px      :     1.700472
      py      :     1.468503
      dz2     :     0.007004  d :     0.063498
      dxz     :     0.000173
      dyz     :     0.015468
      dx2y2   :     0.021665
      dxy     :     0.019188
  7 C s       :     2.704121  s :     2.704121
      pz      :     0.842884  p :     2.765218
      px      :     1.028610
      py      :     0.893725
      dz2     :     0.037436  d :     0.567027
      dxz     :     0.080968
      dyz     :     0.095718
      dx2y2   :     0.187299
      dxy     :     0.165607
  8 C s       :     2.710478  s :     2.710478
      pz      :     0.861229  p :     2.883250
      px      :     1.002488
      py      :     1.019533
      dz2     :     0.032313  d :     0.490369
      dxz     :     0.054783
      dyz     :     0.080044
      dx2y2   :     0.157446
      dxy     :     0.165783
  9 C s       :     2.768969  s :     2.768969
      pz      :     0.909891  p :     2.960295
      px      :     1.033985
      py      :     1.016418
      dz2     :     0.023701  d :     0.366117
      dxz     :     0.029095
      dyz     :     0.056231
      dx2y2   :     0.117599
      dxy     :     0.139491
 10 C s       :     2.773468  s :     2.773468
      pz      :     0.871074  p :     2.930834
      px      :     1.054338
      py      :     1.005423
      dz2     :     0.023705  d :     0.369184
      dxz     :     0.076744
      dyz     :     0.012290
      dx2y2   :     0.155198
      dxy     :     0.101248
 11 N s       :     2.938810  s :     2.938810
      pz      :     1.262229  p :     3.631342
      px      :     1.186161
      py      :     1.182952
      dz2     :     0.013613  d :     0.228580
      dxz     :     0.019269
      dyz     :     0.039353
      dx2y2   :     0.074891
      dxy     :     0.081454
 12 C s       :     2.789439  s :     2.789439
      pz      :     0.846533  p :     2.832860
      px      :     0.982956
      py      :     1.003371
      dz2     :     0.028243  d :     0.434092
      dxz     :     0.100683
      dyz     :     0.017401
      dx2y2   :     0.170161
      dxy     :     0.117604
 13 C s       :     2.777987  s :     2.777987
      pz      :     0.910805  p :     2.989817
      px      :     1.022509
      py      :     1.056502
      dz2     :     0.024289  d :     0.357848
      dxz     :     0.025094
      dyz     :     0.051699
      dx2y2   :     0.106055
      dxy     :     0.150711
 14 C s       :     2.784665  s :     2.784665
      pz      :     0.821011  p :     2.881354
      px      :     1.004683
      py      :     1.055660
      dz2     :     0.023005  d :     0.354731
      dxz     :     0.025260
      dyz     :     0.058855
      dx2y2   :     0.103875
      dxy     :     0.143736
 15 H s       :     0.668563  s :     0.668563
      pz      :     0.024744  p :     0.133244
      px      :     0.084327
      py      :     0.024174
 16 H s       :     0.808932  s :     0.808932
      pz      :     0.015580  p :     0.061952
      px      :     0.029035
      py      :     0.017337
 17 H s       :     0.801897  s :     0.801897
      pz      :     0.012549  p :     0.059860
      px      :     0.029709
      py      :     0.017602
 18 H s       :     0.802738  s :     0.802738
      pz      :     0.016293  p :     0.062497
      px      :     0.010938
      py      :     0.035266
 19 H s       :     0.791390  s :     0.791390
      pz      :     0.012804  p :     0.061148
      px      :     0.011079
      py      :     0.037265
 20 H s       :     0.790532  s :     0.790532
      pz      :     0.013734  p :     0.061262
      px      :     0.029346
      py      :     0.018183
 21 H s       :     0.783281  s :     0.783281
      pz      :     0.011649  p :     0.062214
      px      :     0.032086
      py      :     0.018479
 22 H s       :     0.782064  s :     0.782064
      pz      :     0.012355  p :     0.063717
      px      :     0.009486
      py      :     0.041876
 23 H s       :     0.783872  s :     0.783872
      pz      :     0.013338  p :     0.061970
      px      :     0.030668
      py      :     0.017964


                      *****************************
                      * MAYER POPULATION ANALYSIS *
                      *****************************

  NA   - Mulliken gross atomic population
  ZA   - Total nuclear charge
  QA   - Mulliken gross atomic charge
  VA   - Mayer's total valence
  BVA  - Mayer's bonded valence
  FA   - Mayer's free valence

  ATOM       NA         ZA         QA         VA         BVA        FA
  0 C      6.2409     6.0000    -0.2409     3.9957     3.9957     0.0000
  1 C      6.0622     6.0000    -0.0622     3.8362     3.8362    -0.0000
  2 C      6.2905     6.0000    -0.2905     3.8416     3.8416    -0.0000
  3 C      5.7106     6.0000     0.2894     3.7881     3.7881    -0.0000
  4 C      5.9814     6.0000     0.0186     3.3799     3.3799     0.0000
  5 C      5.6828     6.0000     0.3172     3.9694     3.9694    -0.0000
  6 O      8.7355     8.0000    -0.7355     1.7961     1.7961    -0.0000
  7 C      5.9535     6.0000     0.0465     3.8821     3.8821     0.0000
  8 C      5.6769     6.0000     0.3231     3.8791     3.8791     0.0000
  9 C      6.2490     6.0000    -0.2490     3.7701     3.7701     0.0000
 10 C      6.2368     6.0000    -0.2368     3.7887     3.7887     0.0000
 11 N      7.2045     7.0000    -0.2045     3.4166     3.4166     0.0000
 12 C      5.9064     6.0000     0.0936     3.9055     3.9055    -0.0000
 13 C      6.0442     6.0000    -0.0442     3.8759     3.8759     0.0000
 14 C      6.1869     6.0000    -0.1869     3.9779     3.9779     0.0000
 15 H      0.7847     1.0000     0.2153     1.0211     1.0211     0.0000
 16 H      0.9310     1.0000     0.0690     1.0086     1.0086     0.0000
 17 H      0.8987     1.0000     0.1013     0.9626     0.9626     0.0000
 18 H      0.8990     1.0000     0.1010     0.9743     0.9743    -0.0000
 19 H      0.8883     1.0000     0.1117     0.9752     0.9752     0.0000
 20 H      0.8908     1.0000     0.1092     0.9738     0.9738    -0.0000
 21 H      0.8574     1.0000     0.1426     0.9673     0.9673     0.0000
 22 H      0.8270     1.0000     0.1730     0.9613     0.9613     0.0000
 23 H      0.8612     1.0000     0.1388     0.9632     0.9632     0.0000

  Mayer bond orders larger than 0.100000
B(  0-C ,  1-C ) :   1.4088 B(  0-C ,  5-C ) :   1.3833 B(  0-C , 16-H ) :   1.0054 
B(  1-C ,  2-C ) :   1.3701 B(  1-C , 17-H ) :   0.9902 B(  2-C ,  3-C ) :   1.2668 
B(  2-C , 18-H ) :   0.9932 B(  3-C ,  4-C ) :   1.3014 B(  3-C , 10-C ) :   1.1562 
B(  4-C ,  5-C ) :   0.9874 B(  4-C ,  7-C ) :   1.1002 B(  5-C ,  6-O ) :   1.5158 
B(  6-O , 15-H ) :   0.1576 B(  7-C ,  8-C ) :   1.3246 B(  7-C , 11-N ) :   1.2684 
B(  8-C ,  9-C ) :   1.1495 B(  8-C , 14-C ) :   1.2920 B(  9-C , 10-C ) :   1.4870 
B(  9-C , 20-H ) :   1.0193 B( 10-C , 19-H ) :   1.0109 B( 11-N , 12-C ) :   1.3120 
B( 11-N , 15-H ) :   0.8165 B( 12-C , 13-C ) :   1.4066 B( 12-C , 22-H ) :   0.9443 
B( 13-C , 14-C ) :   1.4219 B( 13-C , 23-H ) :   0.9632 B( 14-C , 21-H ) :   0.9589 


Environment variable NBOEXE for nbo6.exe or nbo5.exe not set! Skipping NBO-Analysis

-------
TIMINGS
-------

Total SCF time: 0 days 0 hours 6 min 39 sec 

Total time                  ....     399.429 sec
Sum of individual times     ....     396.022 sec  ( 99.1%)

Fock matrix formation       ....     387.108 sec  ( 96.9%)
  Split-RI-J                ....      29.287 sec  (  7.6% of F)
  Chain of spheres X        ....     283.692 sec  ( 73.3% of F)
  XC integration            ....      36.026 sec  (  9.3% of F)
    Basis function eval.    ....       9.994 sec  ( 27.7% of XC)
    Density eval.           ....      11.594 sec  ( 32.2% of XC)
    XC-Functional eval.     ....       1.217 sec  (  3.4% of XC)
    XC-Potential eval.      ....      11.282 sec  ( 31.3% of XC)
Diagonalization             ....       0.231 sec  (  0.1%)
Density matrix formation    ....       0.032 sec  (  0.0%)
Population analysis         ....       0.066 sec  (  0.0%)
Initial guess               ....       1.850 sec  (  0.5%)
Orbital Transformation      ....       0.000 sec  (  0.0%)
Orbital Orthonormalization  ....       0.000 sec  (  0.0%)
DIIS solution               ....       0.247 sec  (  0.1%)
SOSCF solution              ....       0.176 sec  (  0.0%)
Grid generation             ....       6.312 sec  (  1.6%)

Maximum memory used throughout the entire SCF-calculation: 194.4 MB
------------------------------------------------------------------------------
                        ORCA TD-DFT/TDA CALCULATION
------------------------------------------------------------------------------

Input orbitals are from        ... HBQ-Keto_ES.gbw
CI-vector output               ... HBQ-Keto_ES.cis
Tamm-Dancoff approximation     ... operative
CIS-Integral strategy          ... AO-integrals
Integral handling              ... AO integral Direct
Max. core memory used          ... 3000 MB
Reference state                ... RHF
Generation of triplets         ... off
Follow IRoot                   ... off
Number of operators            ... 1
Orbital ranges used for CIS calculation:
 Operator 0:  Orbitals  15... 50  to  51...413
XAS localization array:
 Operator 0:  Orbitals  -1... -1

-------------------
[...]
      0      -0.032626   0.011968  -0.046946   0.001528   0.000232   0.001121
      1       0.019520  -0.007815   0.030335  -0.000705   0.000068  -0.000435
      2       0.001302  -0.000499   0.001946  -0.000054  -0.000003  -0.000041
      3      -0.006823   0.008638  -0.038754   0.001140  -0.000330   0.001635
      4      -0.005829   0.005227  -0.022535   0.000307  -0.000529  -0.000292
      5      -0.000062   0.000003   0.000016  -0.000011  -0.000011  -0.000049
      6       0.000506  -0.000507   0.002454  -0.000361  -0.000339  -0.000814
      7       0.022529   0.009340  -0.044787   0.000489  -0.000502  -0.000318
      8       0.000708   0.000308  -0.001476   0.000021  -0.000009   0.000010
      9       0.001539  -0.000253   0.000987   0.000268   0.000626  -0.000778
     10      -0.000843  -0.000132   0.000315  -0.000051  -0.000128   0.000378
     11      -0.000073   0.000003  -0.000000  -0.000009  -0.000016   0.000022
     12       0.000156   0.000249   0.000232  -0.000072   0.000283  -0.000990
     13      -0.000662   0.000033   0.000335   0.000219   0.000361  -0.000493
     14      -0.000019  -0.000006   0.000010   0.000008   0.000004   0.000006
     15       0.001107  -0.000285   0.001390  -0.000069   0.000156  -0.001614
     16       0.001144  -0.000156   0.001718  -0.000279  -0.000094   0.002362
     17       0.000024   0.000002   0.000031  -0.000009  -0.000005   0.000122
     18      -0.000094  -0.000014  -0.000109   0.000017   0.000102  -0.000093
     19      -0.000272  -0.000108  -0.000505   0.000204   0.000071  -0.001977
     20      -0.000008  -0.000006  -0.000013   0.000008  -0.000001  -0.000051
     21      -0.000260  -0.000690   0.000071   0.000567  -0.000516   0.000628
     22       0.000234   0.000017  -0.000061  -0.001168  -0.002345  -0.000387
     23       0.000012   0.000008  -0.000003  -0.000039  -0.000061  -0.000018
     24      -0.000208  -0.000487  -0.000211   0.001407  -0.000411  -0.000629
     25      -0.002119  -0.000681   0.000347   0.001732   0.000397   0.002464
     26      -0.000071  -0.000011   0.000016   0.000024   0.000019   0.000075
     27      -0.030932   0.004531   0.008319  -0.003194   0.000864  -0.000612
     28       0.016634  -0.002279  -0.004053   0.001438  -0.000398  -0.001898
     29       0.001199  -0.000167  -0.000312   0.000114  -0.000031  -0.000044
     30       0.004419  -0.000735  -0.001794   0.000363  -0.000627   0.001954
     31       0.065755  -0.003646  -0.020172   0.003740   0.001021   0.001185
     32       0.002007  -0.000101  -0.000609   0.000112   0.000044  -0.000003
     33       0.000226   0.001335   0.000924   0.000274  -0.000860   0.066270
     34      -0.000345  -0.000639  -0.000610   0.000827  -0.000606  -0.038284
     35      -0.000009  -0.000045  -0.000043   0.000019  -0.000001  -0.002793
     36       0.000070   0.000981   0.000527   0.001036  -0.006499  -0.004322
     37       0.000066   0.005585   0.001499   0.012631   0.086220  -0.000046
     38      -0.000001   0.000138   0.000029   0.000361   0.002794   0.000094
     39      -0.004117  -0.053784  -0.013071  -0.048876   0.014321   0.000628
     40      -0.002307  -0.030324  -0.007243  -0.031133   0.006990  -0.000969
     41       0.000018   0.000263   0.000071   0.000126  -0.000115  -0.000059
     42       0.007538   0.048135   0.008141  -0.054569   0.005770  -0.001747
     43      -0.004295  -0.027470  -0.004543   0.035125  -0.006056   0.001244
     44      -0.000309  -0.001957  -0.000323   0.002357  -0.000316   0.000082
     45      -0.002487  -0.013534  -0.012594   0.002622  -0.005875  -0.838816
     46       0.001723   0.009272   0.009017  -0.001516   0.008266   0.536999
     47       0.000109   0.000642   0.000562  -0.000164   0.000404   0.036999
     48       0.374444  -0.138736   0.539436  -0.016154  -0.002205  -0.005084
     49      -0.223809   0.083328  -0.324295   0.009671   0.001161   0.004125
     50      -0.015012   0.005584  -0.021726   0.000644   0.000068   0.000266
     51       0.081368  -0.095420   0.423907  -0.010947   0.004470  -0.010113
     52       0.049865  -0.055125   0.244252  -0.006398   0.002474  -0.006920
     53       0.000056   0.000041  -0.000208   0.000004  -0.000007  -0.000037
     54      -0.002185   0.000672  -0.002166   0.000007  -0.000071   0.000708
     55      -0.261461  -0.104308   0.501074  -0.005954   0.004195   0.000361
     56      -0.008302  -0.003348   0.016055  -0.000193   0.000145  -0.000011
     57      -0.032824   0.002310   0.009210  -0.002177  -0.000211   0.000594
     58      -0.748165   0.041007   0.229362  -0.042112  -0.009261  -0.006162
     59      -0.023014   0.001252   0.007031  -0.001280  -0.000276  -0.000193
     60       0.329500  -0.047462  -0.087014   0.032161  -0.007864  -0.003173
     61      -0.200717   0.031018   0.052903  -0.021650   0.005097   0.002558
     62      -0.013525   0.002027   0.003579  -0.001396   0.000337   0.000172
     63      -0.087685  -0.556439  -0.092770   0.628768  -0.063444   0.013053
     64       0.053554   0.332862   0.054986  -0.380377   0.039298  -0.006682
     65       0.003699   0.023180   0.003855  -0.026432   0.002693  -0.000451
     66      -0.000075   0.002901   0.000717   0.008004   0.064456   0.001072
     67       0.000400  -0.069297  -0.017999  -0.166701  -0.977334   0.010259
     68       0.000023  -0.002128  -0.000572  -0.005240  -0.031357   0.000400
     69       0.048830   0.615777   0.147357   0.555126  -0.140136  -0.011630
     70       0.029051   0.365029   0.087515   0.334058  -0.079497  -0.004470
     71      -0.000193  -0.002488  -0.000589  -0.002086   0.000687   0.000132


-----------
IR SPECTRUM
-----------

 Mode   freq       eps      Int      T**2         TX        TY        TZ
       cm**-1   L/(mol*cm) km/mol    a.u.
----------------------------------------------------------------------------
  6:     26.65   0.002401   12.13  0.028112  ( 0.003746 -0.002165  0.167610)
  7:     96.50   0.000097    0.49  0.000312  ( 0.000795  0.002436 -0.017482)
  8:    155.39   0.000043    0.22  0.000087  ( 0.001368  0.000532  0.009186)
  9:    191.80   0.000626    3.16  0.001018  (-0.001425  0.000995 -0.031854)
 10:    234.88   0.006764   34.18  0.008986  (-0.094340 -0.009042  0.002069)
 11:    273.73   0.000610    3.08  0.000696  (-0.000052  0.000492 -0.026375)
 12:    346.05   0.000772    3.90  0.000696  (-0.000346  0.000203 -0.026378)
 13:    375.54   0.001865    9.42  0.001550  (-0.021240  0.033113  0.001427)
 14:    401.70   0.003694   18.67  0.002870  (-0.030879 -0.043772 -0.000362)
 15:    467.05   0.000004    0.02  0.000003  (-0.001042 -0.000355 -0.001235)
 16:    487.51   0.001276    6.45  0.000817  (-0.000135  0.028565  0.000748)
 17:    491.33   0.001362    6.88  0.000865  (-0.001007 -0.000413 -0.029395)
 18:    532.63   0.000561    2.83  0.000328  ( 0.017720 -0.003755 -0.000576)
 19:    543.23   0.000638    3.22  0.000367  (-0.001319  0.000265 -0.019098)
 20:    549.12   0.002863   14.47  0.001627  (-0.040305  0.000088  0.001567)
 21:    568.95   0.001113    5.62  0.000611  ( 0.000630 -0.024676 -0.001095)
 22:    634.99   0.002563   12.95  0.001260  ( 0.000308 -0.000189  0.035491)
 23:    672.01   0.030826  155.78  0.014315  (-0.003047  0.003136 -0.119564)
 24:    680.96   0.000091    0.46  0.000042  ( 0.000724  0.006212  0.001648)
 25:    698.50   0.000620    3.13  0.000277  (-0.000788  0.001781 -0.016528)
 26:    701.32   0.001207    6.10  0.000537  ( 0.015731 -0.016971 -0.001202)
 27:    735.24   0.001888    9.54  0.000801  ( 0.000393 -0.000748  0.028296)
 28:    764.39   0.004313   21.80  0.001761  ( 0.001007 -0.000239  0.041949)
 29:    813.12   0.007450   37.65  0.002859  ( 0.000221  0.000755 -0.053467)
 30:    815.32   0.001372    6.93  0.000525  (-0.020773  0.009170 -0.003064)
 31:    820.50   0.006137   31.01  0.002334  (-0.000875  0.001403 -0.048284)
 32:    852.19   0.014047   70.99  0.005144  (-0.000725  0.002367 -0.071677)
 33:    857.26   0.001179    5.96  0.000429  (-0.009476 -0.017649 -0.005289)
 34:    866.80   0.002114   10.68  0.000761  ( 0.001096 -0.000675  0.027558)
 35:    940.48   0.003031   15.32  0.001006  ( 0.000912 -0.001360  0.031673)
 36:    950.89   0.000738    3.73  0.000242  (-0.000197  0.000328 -0.015554)
 37:    963.78   0.000008    0.04  0.000003  (-0.000340 -0.000166 -0.001571)
 38:   1002.52   0.001728    8.73  0.000538  ( 0.005780  0.022452  0.000593)
 39:   1026.72   0.011975   60.52  0.003640  ( 0.034054  0.049790  0.001058)
 40:   1060.82   0.003089   15.61  0.000909  ( 0.023267 -0.019140 -0.001021)
 41:   1093.40   0.004556   23.02  0.001300  (-0.030276  0.019546  0.001265)
 42:   1119.96   0.002448   12.37  0.000682  ( 0.014858  0.021474  0.000384)
 43:   1161.82   0.002254   11.39  0.000605  (-0.022643 -0.009626  0.000149)
 44:   1178.39   0.013500   68.22  0.003575  ( 0.029926 -0.051710 -0.002389)
 45:   1189.38   0.013110   66.25  0.003440  ( 0.040494 -0.042363 -0.002328)
 46:   1194.71   0.007788   39.36  0.002034  ( 0.044678  0.006116 -0.000808)
 47:   1232.15   0.009458   47.80  0.002395  ( 0.040118  0.028035  0.000048)
 48:   1266.58   0.001477    7.46  0.000364  ( 0.005304 -0.018303 -0.000827)
 49:   1289.67   0.015094   76.28  0.003652  (-0.029996 -0.052450 -0.001276)
 50:   1319.36   0.102307  517.02  0.024198  (-0.154428 -0.018511  0.002808)
 51:   1342.70   0.056903  287.56  0.013225  (-0.077035 -0.085380 -0.000894)
 52:   1359.60   0.011493   58.08  0.002638  (-0.017137  0.048369  0.002135)
 53:   1413.18   0.034346  173.57  0.007584  (-0.007693  0.086688  0.003220)
 54:   1433.68   0.085139  430.26  0.018532  ( 0.064098 -0.119960 -0.005736)
 55:   1443.99   0.019837  100.25  0.004287  (-0.012592 -0.064219 -0.002059)
 56:   1478.78   0.026550  134.17  0.005603  ( 0.074390 -0.008025 -0.002126)
 57:   1493.96   0.016781   84.80  0.003505  ( 0.055097 -0.021566 -0.002091)
 58:   1520.18   0.006122   30.94  0.001257  ( 0.035393 -0.001860 -0.000715)
 59:   1559.51   0.020424  103.21  0.004087  (-0.063460  0.007454  0.002060)
 60:   1574.39   0.037509  189.55  0.007435  (-0.024755 -0.082560 -0.002383)
 61:   1580.52   0.044689  225.84  0.008823  (-0.080479 -0.048441  0.000216)
 62:   1669.28   0.021923  110.79  0.004098  (-0.060165 -0.021867  0.000579)
 63:   3175.92   0.002263   11.44  0.000222  ( 0.013434  0.006474 -0.000060)
 64:   3176.73   0.000906    4.58  0.000089  (-0.004314 -0.008389 -0.000222)
 65:   3189.90   0.001862    9.41  0.000182  ( 0.000206 -0.013487 -0.000417)
 66:   3193.21   0.006605   33.38  0.000645  (-0.015995  0.019715  0.000968)
 67:   3196.41   0.000383    1.93  0.000037  ( 0.003232 -0.005183 -0.000238)
 68:   3197.90   0.007548   38.14  0.000737  (-0.024859 -0.010886  0.000169)
 69:   3207.41   0.000014    0.07  0.000001  ( 0.000248 -0.001136 -0.000014)
 70:   3239.47   0.001885    9.52  0.000182  (-0.005149 -0.012449 -0.000258)
 71:   3354.10   0.078590  397.16  0.007312  (-0.075887  0.039281  0.003187)

* The epsilon (eps) is given for a Dirac delta lineshape.
** The dipole moment derivative (T) already includes vibrational overlap.

The first frequency considered to be a vibration is 6
The total number of vibrations considered is 66


--------------------------
THERMOCHEMISTRY AT 298.15K
--------------------------

Temperature         ... 298.15 K
Pressure            ... 1.00 atm
Total Mass          ... 195.22 AMU

Throughout the following assumptions are being made:
  (1) The electronic state is orbitally nondegenerate
  (2) There are no thermally accessible electronically excited states
  (3) Hindered rotations indicated by low frequency modes are not
      treated as such but are treated as vibrations and this may
      cause some error
  (4) All equations used are the standard statistical mechanics
      equations for an ideal gas
  (5) All vibrations are strictly harmonic

freq.      26.65  E(vib)   ...       0.56 
freq.      96.50  E(vib)   ...       0.47 
freq.     155.39  E(vib)   ...       0.40 
freq.     191.80  E(vib)   ...       0.36 
freq.     234.88  E(vib)   ...       0.32 
freq.     273.73  E(vib)   ...       0.28 
freq.     346.05  E(vib)   ...       0.23 
freq.     375.54  E(vib)   ...       0.21 
freq.     401.70  E(vib)   ...       0.19 
freq.     467.05  E(vib)   ...       0.16 
freq.     487.51  E(vib)   ...       0.15 
freq.     491.33  E(vib)   ...       0.14 
freq.     532.63  E(vib)   ...       0.13 
freq.     543.23  E(vib)   ...       0.12 
freq.     549.12  E(vib)   ...       0.12 
freq.     568.95  E(vib)   ...       0.11 
freq.     634.99  E(vib)   ...       0.09 
freq.     672.01  E(vib)   ...       0.08 
freq.     680.96  E(vib)   ...       0.08 
freq.     698.50  E(vib)   ...       0.07 
freq.     701.32  E(vib)   ...       0.07 
freq.     735.24  E(vib)   ...       0.06 
freq.     764.39  E(vib)   ...       0.06 
freq.     813.12  E(vib)   ...       0.05 
freq.     815.32  E(vib)   ...       0.05 
freq.     820.50  E(vib)   ...       0.05 
freq.     852.19  E(vib)   ...       0.04 
freq.     857.26  E(vib)   ...       0.04 
freq.     866.80  E(vib)   ...       0.04 
freq.     940.48  E(vib)   ...       0.03 
freq.     950.89  E(vib)   ...       0.03 
freq.     963.78  E(vib)   ...       0.03 
freq.    1002.52  E(vib)   ...       0.02 
freq.    1026.72  E(vib)   ...       0.02 
freq.    1060.82  E(vib)   ...       0.02 
freq.    1093.40  E(vib)   ...       0.02 
freq.    1119.96  E(vib)   ...       0.01 
freq.    1161.82  E(vib)   ...       0.01 
freq.    1178.39  E(vib)   ...       0.01 
freq.    1189.38  E(vib)   ...       0.01 
freq.    1194.71  E(vib)   ...       0.01 
freq.    1232.15  E(vib)   ...       0.01 
freq.    1266.58  E(vib)   ...       0.01 
freq.    1289.67  E(vib)   ...       0.01 
freq.    1319.36  E(vib)   ...       0.01 
freq.    1342.70  E(vib)   ...       0.01 
freq.    1359.60  E(vib)   ...       0.01 
freq.    1413.18  E(vib)   ...       0.00 
freq.    1433.68  E(vib)   ...       0.00 
freq.    1443.99  E(vib)   ...       0.00 
freq.    1478.78  E(vib)   ...       0.00 
freq.    1493.96  E(vib)   ...       0.00 
freq.    1520.18  E(vib)   ...       0.00 
freq.    1559.51  E(vib)   ...       0.00 
freq.    1574.39  E(vib)   ...       0.00 
freq.    1580.52  E(vib)   ...       0.00 
freq.    1669.28  E(vib)   ...       0.00 
freq.    3175.92  E(vib)   ...       0.00 
freq.    3176.73  E(vib)   ...       0.00 
freq.    3189.90  E(vib)   ...       0.00 
freq.    3193.21  E(vib)   ...       0.00 
freq.    3196.41  E(vib)   ...       0.00 
freq.    3197.90  E(vib)   ...       0.00 
freq.    3207.41  E(vib)   ...       0.00 
freq.    3239.47  E(vib)   ...       0.00 
freq.    3354.10  E(vib)   ...       0.00 

------------
INNER ENERGY
------------

The inner energy is: U= E(el) + E(ZPE) + E(vib) + E(rot) + E(trans)
    E(el)   - is the total energy from the electronic structure calculation
              = E(kin-el) + E(nuc-el) + E(el-el) + E(nuc-nuc)
    E(ZPE)  - the the zero temperature vibrational energy from the frequency calculation
    E(vib)  - the the finite temperature correction to E(ZPE) due to population
              of excited vibrational states
    E(rot)  - is the rotational thermal energy
    E(trans)- is the translational thermal energy

Summary of contributions to the inner energy U:
Electronic energy                ...   -630.93541218 Eh
Zero point energy                ...      0.18326974 Eh     115.00 kcal/mol
Thermal vibrational correction   ...      0.00796075 Eh       5.00 kcal/mol
Thermal rotational correction    ...      0.00141627 Eh       0.89 kcal/mol
Thermal translational correction ...      0.00141627 Eh       0.89 kcal/mol
-----------------------------------------------------------------------
Total thermal energy                   -630.74134915 Eh


Summary of corrections to the electronic energy:
(perhaps to be used in another calculation)
Total thermal correction                  0.01079329 Eh       6.77 kcal/mol
Non-thermal (ZPE) correction              0.18326974 Eh     115.00 kcal/mol
-----------------------------------------------------------------------
Total correction                          0.19406303 Eh     121.78 kcal/mol


--------
ENTHALPY
--------

The enthalpy is H = U + kB*T
                kB is Boltzmann's constant
Total free energy                 ...   -630.74134915 Eh 
Thermal Enthalpy correction       ...      0.00094421 Eh       0.59 kcal/mol
-----------------------------------------------------------------------
Total Enthalpy                    ...   -630.74040494 Eh


Note: Only C1 symmetry has been detected, increase convergence thresholds 
      if your molecule has a higher symmetry. Symmetry factor of 1.0 is   
      used for the rotational entropy correction. 
 

Note: Rotational entropy computed according to Herzberg 
Infrared and Raman Spectra, Chapter V,1, Van Nostrand Reinhold, 1945 
Point Group:  C1, Symmetry Number:   1  
Rotational constants in cm-1:     0.040122     0.018214     0.012527 

Vibrational entropy computed according to the QRRHO of S. Grimme
Chem.Eur.J. 2012 18 9955


-------
ENTROPY
-------

The entropy contributions are T*S = T*(S(el)+S(vib)+S(rot)+S(trans))
     S(el)   - electronic entropy
     S(vib)  - vibrational entropy
     S(rot)  - rotational entropy
     S(trans)- translational entropy
The entropies will be listed as multiplied by the temperature to get
units of energy

Electronic entropy                ...      0.00000000 Eh      0.00 kcal/mol
Vibrational entropy               ...      0.01307956 Eh      8.21 kcal/mol
Rotational entropy                ...      0.01498766 Eh      9.40 kcal/mol
Translational entropy             ...      0.01981867 Eh     12.44 kcal/mol
-----------------------------------------------------------------------
Final entropy term                ...      0.04788590 Eh     30.05 kcal/mol

In case the symmetry of your molecule has not been determined correctly
or in case you have a reason to use a different symmetry number we print 
out the resulting rotational entropy values for sn=1,12 :
 --------------------------------------------------------
|  sn= 1 | S(rot)=       0.01498766 Eh      9.40 kcal/mol|
|  sn= 2 | S(rot)=       0.01433320 Eh      8.99 kcal/mol|
|  sn= 3 | S(rot)=       0.01395037 Eh      8.75 kcal/mol|
|  sn= 4 | S(rot)=       0.01367875 Eh      8.58 kcal/mol|
|  sn= 5 | S(rot)=       0.01346806 Eh      8.45 kcal/mol|
|  sn= 6 | S(rot)=       0.01329592 Eh      8.34 kcal/mol|
|  sn= 7 | S(rot)=       0.01315037 Eh      8.25 kcal/mol|
|  sn= 8 | S(rot)=       0.01302429 Eh      8.17 kcal/mol|
|  sn= 9 | S(rot)=       0.01291308 Eh      8.10 kcal/mol|
|  sn=10 | S(rot)=       0.01281360 Eh      8.04 kcal/mol|
|  sn=11 | S(rot)=       0.01272361 Eh      7.98 kcal/mol|
|  sn=12 | S(rot)=       0.01264146 Eh      7.93 kcal/mol|
 --------------------------------------------------------


-------------------
GIBBS FREE ENERGY
-------------------

The Gibbs free energy is G = H - T*S

Total enthalpy                    ...   -630.74040494 Eh 
Total entropy correction          ...     -0.04788590 Eh    -30.05 kcal/mol
-----------------------------------------------------------------------
Final Gibbs free energy         ...   -630.78829084 Eh

For completeness - the Gibbs free energy minus the electronic energy
G-E(el)                           ...      0.14712134 Eh     92.32 kcal/mol



Timings for individual modules:

Sum of individual times         ...   135364.916 sec (=2256.082 min)
GTO integral calculation        ...        4.654 sec (=   0.078 min)   0.0 %
SCF iterations                  ...      796.961 sec (=  13.283 min)   0.6 %
CIS module                      ...      298.284 sec (=   4.971 min)   0.2 %
SCF Gradient evaluation         ...      510.151 sec (=   8.503 min)   0.4 %
Numerical frequency calculation ...   133754.866 sec (=2229.248 min)  98.8 %
                             ****ORCA TERMINATED NORMALLY****
TOTAL RUN TIME: 1 days 13 hours 18 minutes 29 seconds 436 msec
