
                                 *****************
                                 * O   R   C   A *
                                 *****************

                                            #,                                       
                                            ###                                      
                                            ####                                     
                                            #####                                    
                                            ######                                   
                                           ########,                                 
                                     ,,################,,,,,                         
                               ,,#################################,,                 
                          ,,##########################################,,             
                       ,#########################################, ''#####,          
                    ,#############################################,,   '####,        
                  ,##################################################,,,,####,       
                ,###########''''           ''''###############################       
              ,#####''   ,,,,##########,,,,          '''####'''          '####       
            ,##' ,,,,###########################,,,                        '##       
           ' ,,###''''                  '''############,,,                           
         ,,##''                                '''############,,,,        ,,,,,,###''
      ,#''                                            '''#######################'''  
     '                                                          ''''####''''         
             ,#######,   #######,   ,#######,      ##                                
            ,#'     '#,  ##    ##  ,#'     '#,    #''#        ,####,   ,####,        
            ##       ##  ##   ,#'  ##            #'  '#       #'       #'  '#        
            ##       ##  #######   ##           ,######,      #####,   #    #        
            '#,     ,#'  ##    ##  '#,     ,#' ,#      #,     #,   #   #,  ,#        
             '#######'   ##     ##  '#######'  #'      '#     '####' # '####'        



                #########################################################
                #                        -***-                          #
                #          Department of theory and spectroscopy        #
                #                                                       #
                #                      Frank Neese                      #
                #                                                       #
                #     Directorship, Architecture, Infrastructure        #
                #                    SHARK, DRIVERS                     #
                #        Core code/Algorithms in most modules           #
                #                                                       #
                #        Max Planck Institute fuer Kohlenforschung      #
                #                Kaiser Wilhelm Platz 1                 #
                #                 D-45470 Muelheim/Ruhr                 #
                #                      Germany                          #
                #                                                       #
                #                  All rights reserved                  #
                #                        -***-                          #
                #########################################################


                         Program Version 6.0.1  -  RELEASE   -


 With contributions from (in alphabetic order):
[Max-Planck-Institut fuer Kohlenforschung]                               
  Daniel Aravena         : Magnetic Suceptibility                        
  Michael Atanasov       : Ab Initio Ligand Field Theory (pilot matlab implementation)
  Alexander A. Auer      : GIAO ZORA, VPT2 properties, NMR spectrum      
  Ute Becker             : All parallelization in ORCA, NUMFREQ, NUMCALC 
  Giovanni Bistoni       : ED, misc. LED, open-shell LED, HFLD           
  Martin Brehm           : Molecular dynamics                            
  Dmytro Bykov           : pre 5.0 version of the SCF Hessian            
  Marcos Casanova-Páez   : Triplet and SCS-CIS(D). UHF-(DLPNO)-IP/EA/STEOM-CCSD. UHF-CVS-IP/STEOM-CCSD   
  Vijay G. Chilkuri      : MRCI spin determinant printing, contributions to CSF-ICE 
  Pauline Colinet        : FMM embedding                                 
  Dipayan Datta          : RHF DLPNO-CCSD density                        
  Achintya Kumar Dutta   : EOM-CC, STEOM-CC                              
  Nicolas Foglia         : Exact transition moments, OPA infrastructure, MCD improvements    
  Dmitry Ganyushin       : Spin-Orbit,Spin-Spin,Magnetic field MRCI      
  Miquel Garcia-Rates    : C-PCM and meta-GGA Hessian, CCSD/C-PCM, Gaussian charge scheme 
  Tiago L. C. Gouveia    : GS-ROHF, GS-ROCIS                             
  Yang Guo               : DLPNO-NEVPT2, F12-NEVPT2, CIM, IAO-localization        
  Andreas Hansen         : Spin unrestricted coupled pair/coupled cluster methods 
  Ingolf Harden          : AUTO-CI MPn and infrastructure                
  Benjamin Helmich-Paris : MC-RPA, TRAH-(SCF,CASSCF), AVAS, COSX integrals, SCF dyn. polar. 
  Lee Huntington         : MR-EOM, pCC                                   
  Robert Izsak           : Overlap fitted RIJCOSX, COSX-SCS-MP3, EOM     
  Riya Kayal             : Wick's Theorem for AUTO-CI, AUTO-CI UHF-CCSDT 
  Emily Kempfer          : AUTO-CI, RHF CISDT and CCSDT                  
  Christian Kollmar      : KDIIS, OOCD, Brueckner-CCSD(T), CCSD density, CASPT2, CASPT2-K, improved NEVPT2 
  Axel Koslowski         : Symmetry handling                             
  Simone Kossmann        : meta-GGA functionals, TD-DFT gradient, OOMP2, (MP2 Hessian; deprecated post 5.0) 
  Lucas Lang             : DCDCAS                                        
  Marvin Lechner         : AUTO-CI (C++ implementation), FIC-MRCC        
  Spencer Leger          : CASSCF response                               
  Dagmar Lenk            : GEPOL surface, SMD, ORCA-2-JSON               
  Dimitrios Liakos       : Extrapolation schemes; Compound Job, initial MDCI parallelization 
  Dimitrios Manganas     : Further ROCIS development; embedding schemes. LFT, Crystal Embedding 
  Dimitrios Pantazis     : SARC Basis sets                               
  Anastasios Papadopoulos: AUTO-CI, single reference methods and gradients 
  Taras Petrenko         : pre 6.0 DFT Hessian and TD-DFT gradient, (ASA, deprecated), ECA, 1-Electron XAS/XES, NRVS 
  Peter Pinski           : DLPNO-MP2, DLPNO-MP2 Gradient                 
  Christoph Reimann      : Effective Core Potentials                     
  Marius Retegan         : Local ZFS, SOC                                
  Christoph Riplinger    : Optimizer, TS searches, QM/MM, DLPNO-CCSD(T), (RO)-DLPNO pert. Triples 
  Michael Roemelt        : Original ROCIS implementation                 
  Masaaki Saitow         : Open-shell DLPNO-CCSD energy and density      
  Barbara Sandhoefer     : DKH picture change effects                    
  Kantharuban Sivalingam : CASSCF convergence/infrastructure, NEVPT2 and variants, FIC-MRCI 
  Bernardo de Souza      : ESD, SOC TD-DFT                               
  Georgi L. Stoychev     : AutoAux, RI-MP2 NMR, DLPNO-MP2 response, X2C  
  Van Anh Tran           : RI-MP2 g-tensors                              
  Willem Van den Heuvel  : Paramagnetic NMR                              
  Zikuan Wang            : NOTCH, Electric field optimization            
  Frank Wennmohs         : Technical directorship and infrastructure     
  Hang Xu                : AUTO-CI-Response properties                   
                                                                         
[FACCTs GmbH]                                                            
  Markus Bursch, Miquel Garcia-Rates, Christoph Riplinger, Bernardo de Souza, Georgi L. Stoychev 
                                                                 
  APM, Basis sets (HGBS, AHGBS, def-TZVP (Ac-Lr), def2-XVPD (La-Lu)), CI-OPT, improved COSX, DLPNO-Multilevel,           
  DOCKER, DRACO, updates on ESD, GOAT, IRC, LR-CPCM, MBIS, meta-GGA TD-DFT gradient, ML-optimized integration grids, 
  MM, NACMEs, nearIR, NEB, NEB-TS, NL-DFT gradient (VV10), 2- and 3-layer-ONIOM, interface openCOSMO-RS, QMMM,   
  Crystal-QMMM, SF, symmetry and pop. for TD-DFT, r2SCAN hybrids, SOLVATOR                                   
                                                                         
[Other institutions]                                                     
  V. Asgeirsson          : NEB                                           
  Christoph Bannwarth    : sTDA-DFT, sTD-DFT, PBEh-3c, B97-3c, D3        
  Sebastian Ehlert       : rSCAN, r2SCAN, r2SCAN-3c, D4, dhf basis sets  
  Marvin Friede          : D4 for Fr, Ra, Ac-Lr                          
  Lars Goerigk           : TD-DFT with DH, B97 family of functionals     
  Stefan Grimme          : VdW corrections, initial TS optimization, DFT functionals, gCP, sTDA/sTD-DF 
  Waldemar Hujo          : DFT-NL                                        
  H. Jonsson             : NEB                                           
  Holger Kruse           : gCP                                           
  Marcel Mueller         : wB97X-3c, vDZP basis set                      
  Hagen Neugebauer       : wr2SCAN                                       
  Tobias Risthaus        : range-separated hybrid DFT                    
  Lukas Wittmann         : regularized MP2, r2SCAN double-hybrids, wr2SCAN        
                                                                         
We gratefully acknowledge several colleagues who have allowed us to      
interface, adapt or use parts of their codes:                            
  Ed Valeev, F. Pavosevic, A. Kumar             : LibInt (2-el integral package), F12 methods 
  Garnet Chan, S. Sharma, J. Yang, R. Olivares  : DMRG                   
  Ulf Ekstrom                                   : XCFun DFT Library      
  Mihaly Kallay                                 : mrcc  (arbitrary order and MRCC methods)
  Frank Weinhold                                : gennbo (NPA and NBO analysis)           
  Simon Mueller                                 : openCOSMO-RS                            
  Christopher J. Cramer and Donald G. Truhlar   : smd solvation model                     
  S Lehtola, MJT Oliveira, MAL Marques          : LibXC Library                           
  Liviu Ungur et al                             : ANISO software                          


 Your calculation uses the libint2 library for the computation of 2-el integrals
 For citations please refer to: http://libint.valeyev.net

 Your ORCA version has been built with support for libXC version: 6.2.2
 For citations please refer to: https://libxc.gitlab.io

 This ORCA versions uses:
   CBLAS   interface :  Fast vector & matrix operations
   LAPACKE interface :  Fast linear algebra routines
   SCALAPACK package :  Parallel linear algebra routines
   Shared memory     :  Shared parallel matrices
   BLAS/LAPACK       :  OpenBLAS 0.3.27  USE64BITINT DYNAMIC_ARCH NO_AFFINITY Sandybridge SINGLE_THREADED
        Core in use  :  Sandybridge
   Copyright (c) 2011-2014, The OpenBLAS Project


Warning: RI is on but no J-basis has been assigned. Assigning Def2/J (nothing to worry about!)
================================================================================

----- Orbital basis set information -----
Your calculation utilizes the basis: 6-311G*
   H, Li - Ne  : R. Krishnan, J. S. Binkley, R. Seeger and J. A. Pople, J. Chem. Phys. 72, 650 (1980).
   Na - Ar     : A. D. McLean and G. S. Chandler J. Chem. Phys. 72, 5639, (1980).
   K  - Ca     : J.-P. Blaudeau, M. P. McGrath, L. A. Curtiss and L. Radom, J. Chem. Phys. 107, 5016 (1997).
   Ga - Kr     : L. A. Curtiss, M. P. McGrath, J.-P. Blandeau, N. E. Davis, R. C. Binning and L. Radom, J. Chem. Phys. 103, 6104 (1995).
   Pol./Diff.
   H, Li - Cl  : T. Clark, J. Chandrasekhar and P. v. R. Schleyer, J. Comp. Chem. 4, 294 (1983).
   H - Ne      : M. J. Frisch, J. A. Pople and J. S. Binkley, J. Chem. Phys. 80, 3265 (1984).

----- AuxJ basis set information -----
Your calculation utilizes the auxiliary basis: def2/J
   F. Weigend, Phys. Chem. Chem. Phys. 8, 1057 (2006).

================================================================================
                                        WARNINGS
                       Please study these warnings very carefully!
================================================================================


WARNING: Geometry Optimization
  ===> : Switching off AutoStart
         For restart on a previous wavefunction, please use MOREAD

================================================================================
                                       INPUT FILE
================================================================================
NAME = 5.inp
|  1> ! B3LYP/G OPT FREQ 6-311G* CPCM(Water)
|  2> 
|  3> * xyz 1 1 
|  4> C  -3.46602581804591292070 -0.57374872275094013219 1.90719279197810354098
|  5> C  -3.30218498355060097182 -1.32788770953321577650 3.07025715213536765091
|  6> C  -2.07569500314793842222 -1.42025504075194231035 3.68070766753806610794
|  7> C  -2.41955619058281712341 0.17390730061683190577 1.41586524101055477587
|  8> C  -1.17617236072725583895 0.19118402454190253081 2.09447341442606216333
|  9> O  -2.42100765914068860596 0.80318309259577880255 0.19399493613580909290
| 10> C  -0.98245838517210781760 -0.69885943588105492452 3.18291824411282586738
| 11> C  0.33207983799648554957 -0.89635804042299005445 3.69879678491719765532
| 12> C  1.40943700639473701308 -0.32675643409772581194 3.10909182443959997144
| 13> C  -0.07377375536841146442 0.98222148552139476596 1.66453644350795659790
| 14> C  1.24193827422410429939 0.62722618762899839950 2.06474180554753683481
| 15> N  -0.24135000263961026157 2.08990257486971486856 0.89238716070673262948
| 16> C  0.80161959136120342073 2.66847565272820164139 0.28128330728644201919
| 17> C  2.09253311513818118783 2.22432853186664836187 0.47554489769609531447
| 18> C  2.32306856131966288359 1.25876497727242075975 1.43983024448841567811
| 19> C  -3.57214594982106525833 1.10242126391863171087 -0.49362690705977529948
| 20> O  -4.64959522473754915950 1.27725766689396524889 0.05298031054461216360
| 21> N  -3.34486690814182852094 1.20828731860092153383 -1.80004455008685404493
| 22> C  -2.04443145550271099253 1.02457922920735167160 -2.41124329752731414445
| 23> C  -4.40750024504043480533 1.63040042330069256948 -2.68721535092596486294
| 24> H  -5.30303372570185604928 1.82857204719782640012 -2.10237964675918664881
| 25> H  -4.61987587261997934007 0.84223446873143115177 -3.41013268225618038088
| 26> H  -4.10984124427210328889 2.53400747620102340107 -3.21741824544500243377
| 27> H  -2.19257426892329876367 0.60924522962650162761 -3.40587082060381973747
| 28> H  -1.44350315575082310815 0.33772555042825591620 -1.82200887850729431605
| 29> H  -1.52549416251051805915 1.98038249330460103259 -2.49157955203007297484
| 30> H  -1.93588928753020339535 -2.06650572692691181231 4.53218638465130929660
| 31> H  -4.41301649900821146844 -0.57729815070857881665 1.39194389005528895709
| 32> H  -4.14632993539103722469 -1.87901898211024809271 3.45276900254619967257
| 33> H  0.44800573496086482095 -1.57060470915257965885 4.53226071787078854669
| 34> H  2.41180858358343552794 -0.55619110846431984996 3.43193784920487843237
| 35> H  0.56595298464738941213 3.52213807990200944431 -0.33535873720888653704
| 36> H  2.90428235256717570678 2.68580803075262819490 -0.06141388255834512311
| 37> H  3.32845239259220893047 0.98941180139414786066 1.72443185731122716753
| 38> P  -1.61045830914479415341 3.17423183538231334921 1.15027011771458798073
| 39> O  -2.66837337336736357685 2.75095121898403771610 2.06906699116471370914
| 40> O  -1.92246662048751471019 3.52158633813406218849 -0.34756004347729574366
| 41> O  -0.80921353487198988130 4.44399327817581379918 1.67261615864307033874
| 42> C  -3.06759234800083468997 4.31354768418012746167 -0.70786430088403740069
| 43> C  -0.78083252495244070968 4.77585676358894772875 3.06435651731658564856
| 44> C  -3.03393902227450329434 5.69746707166509036568 -0.09208868789052948589
| 45> H  -3.97765927975962085839 3.78728974967920883898 -0.40288779951435838012
| 46> H  -3.02142599829267410882 4.36846234732027483005 -1.79676063351254944322
| 47> H  -2.09360231163572318991 6.19263172267196182474 -0.32024247518902171361
| 48> H  -3.14762876176541350759 5.63027979946676637724 0.98868405322541175195
| 49> H  -3.85366981985136813904 6.28691910570930723168 -0.49257559757337776585
| 50> C  0.18702072355523213787 3.89355376196720914805 3.82979960001820352034
| 51> H  -1.79049527608941061452 4.67571173212811075359 3.47386271287868986235
| 52> H  -0.47565001756055513837 5.82315971194903703179 3.09446232674939425422
| 53> H  -0.17696669667921893776 2.86741474040381350008 3.84283015914733949714
| 54> H  0.26168734173761887263 4.24830557959451660111 4.85339732730135420269
| 55> H  1.17209949771703558774 3.92551672875402690721 3.37164418105363195011
| 56> *
| 57> 
| 58>                          ****END OF INPUT****
================================================================================

                       *****************************
                       * Geometry Optimization Run *
                       *****************************

Geometry optimization settings:
Update method            Update   .... BFGS
Choice of coordinates    CoordSys .... (2022) Redundant Internals
Initial Hessian          InHess   .... Almloef's Model
Max. no of cycles        MaxIter  .... 156

Convergence Tolerances:
Energy Change            TolE     ....  5.0000e-06 Eh
Max. Gradient            TolMAXG  ....  3.0000e-04 Eh/bohr
RMS Gradient             TolRMSG  ....  1.0000e-04 Eh/bohr
Max. Displacement        TolMAXD  ....  4.0000e-03 bohr
RMS Displacement         TolRMSD  ....  2.0000e-03 bohr
Strict Convergence                .... False

------------------------------------------------------------------------------
                        ORCA OPTIMIZATION COORDINATE SETUP
------------------------------------------------------------------------------

The optimization will be done in redundant internal coordinates (2022)
Making redundant internal coordinates   ...  (2022 redundants) done
Evaluating the initial hessian          ...  (Almloef) done
Evaluating the coordinates              ...  done
Calculating the B-matrix                .... done
Calculating the G-matrix                .... done
Diagonalizing the G-matrix              .... done
Small eigenvalue found = 1.634e-03
Small eigenvalue found = 4.535e-03
Small eigenvalue found = 5.088e-03
Small eigenvalue found = 8.078e-03
Small eigenvalue found = 1.108e-02
Small eigenvalue found = 1.281e-02
Small eigenvalue found = 1.807e-02
Small eigenvalue found = 2.242e-02
Small eigenvalue found = 2.475e-02
Small eigenvalue found = 2.803e-02
The first mode is                       ....  109
The number of degrees of freedom        ....  150

    -----------------------------------------------------------------
                    Redundant Internal Coordinates


    -----------------------------------------------------------------
         Definition                    Initial Value    Approx d2E/dq
    -----------------------------------------------------------------
      1. B(C   1,C   0)                  1.3958         0.611600   
      2. B(C   2,C   1)                  1.3731         0.664766   
      3. B(C   3,C   0)                  1.3768         0.655917   
      4. B(C   4,C   3)                  1.4166         0.566590   
      5. B(O   5,C   3)                  1.3744         0.592618   
      6. B(C   6,C   4)                  1.4193         0.561036   
      7. B(C   6,C   2)                  1.4012         0.599603   
      8. B(C   7,C   6)                  1.4259         0.547630   
      9. B(C   8,C   7)                  1.3538         0.713545   
     10. B(C   9,C   4)                  1.4233         0.552793   
     11. B(C  10,C   9)                  1.4203         0.558958   
     12. B(C  10,C   8)                  1.4244         0.550702   
     13. B(N  11,C   9)                  1.3606         0.623403   
     14. B(C  12,N  11)                  1.3401         0.672080   
     15. B(C  13,C  12)                  1.3789         0.650717   
     16. B(C  14,C  13)                  1.3839         0.638848   
     17. B(C  14,C  10)                  1.3994         0.603686   
     18. B(C  15,O   5)                  1.3739         0.593784   
     19. B(O  16,C  15)                  1.2208         1.042063   
     20. B(N  17,C  15)                  1.3303         0.696927   
     21. B(C  18,N  17)                  1.4486         0.451213   
     22. B(C  19,N  17)                  1.4472         0.453510   
     23. B(H  20,C  19)                  1.0878         0.363037   
     24. B(H  21,C  19)                  1.0904         0.359604   
     25. B(H  22,C  19)                  1.0891         0.361242   
     26. B(H  23,C  18)                  1.0880         0.362763   
     27. B(H  24,C  18)                  1.0863         0.365008   
     28. B(H  25,C  18)                  1.0906         0.359367   
     29. B(H  26,C   2)                  1.0781         0.376254   
     30. B(H  27,C   0)                  1.0781         0.376200   
     31. B(H  28,C   1)                  1.0783         0.375972   
     32. B(H  29,C   7)                  1.0783         0.375929   
     33. B(H  30,C   8)                  1.0778         0.376628   
     34. B(H  31,C  12)                  1.0791         0.374768   
     35. B(H  32,C  13)                  1.0771         0.377524   
     36. B(H  33,C  14)                  1.0790         0.374883   
     37. B(P  34,N  11)                  1.7654         0.473587   
     38. B(O  35,P  34)                  1.4637         1.434564   
     39. B(O  36,P  34)                  1.5689         0.974808   
     40. B(O  37,P  34)                  1.5897         0.903166   
     41. B(C  38,O  36)                  1.4382         0.468837   
     42. B(C  39,O  37)                  1.4310         0.481278   
     43. B(C  40,C  38)                  1.5151         0.394585   
     44. B(H  41,C  38)                  1.0946         0.354048   
     45. B(H  42,H  22)                  2.5628         0.000308   
     46. B(H  42,C  38)                  1.0913         0.358441   
     47. B(H  43,C  40)                  1.0870         0.364148   
     48. B(H  44,C  40)                  1.0888         0.361676   
     49. B(H  45,C  40)                  1.0862         0.365180   
     50. B(C  46,C  39)                  1.5169         0.391937   
     51. B(H  47,C  39)                  1.0941         0.354664   
     52. B(H  48,C  39)                  1.0913         0.358414   
     53. B(H  49,C  46)                  1.0889         0.361610   
     54. B(H  50,C  46)                  1.0859         0.365566   
     55. B(H  51,C  46)                  1.0869         0.364251   
     56. A(C   1,C   0,C   3)          120.1024         0.437415   
     57. A(C   1,C   0,H  27)          119.9710         0.354713   
     58. A(C   3,C   0,H  27)          119.9266         0.358954   
     59. A(C   0,C   1,C   2)          120.7725         0.438474   
     60. A(C   0,C   1,H  28)          118.6762         0.354676   
     61. A(C   2,C   1,H  28)          120.4764         0.359737   
     62. A(C   1,C   2,H  26)          120.4838         0.359783   
     63. A(C   6,C   2,H  26)          119.2118         0.353533   
     64. A(C   1,C   2,C   6)          120.2866         0.436910   
     65. A(C   4,C   3,O   5)          114.9114         0.420909   
     66. A(C   0,C   3,O   5)          124.4095         0.432091   
     67. A(C   0,C   3,C   4)          120.1862         0.431439   
     68. A(C   6,C   4,C   9)          118.3241         0.417701   
     69. A(C   3,C   4,C   9)          122.8121         0.418434   
     70. A(C   3,C   4,C   6)          118.6535         0.419540   
     71. A(C   3,O   5,C  15)          123.0637         0.421689   
     72. A(C   4,C   6,C   7)          119.3500         0.417003   
     73. A(C   2,C   6,C   7)          121.2950         0.421976   
     74. A(C   2,C   6,C   4)          119.2625         0.423804   
     75. A(C   6,C   7,H  29)          117.7343         0.348109   
     76. A(C   6,C   7,C   8)          121.1827         0.435350   
     77. A(C   8,C   7,H  29)          120.9443         0.364103   
     78. A(C  10,C   8,H  30)          118.1364         0.348546   
     79. A(C   7,C   8,H  30)          121.3360         0.364219   
     80. A(C   7,C   8,C  10)          120.5025         0.435789   
     81. A(C   4,C   9,C  10)          119.5681         0.417425   
     82. A(C  10,C   9,N  11)          118.5209         0.423706   
     83. A(C   4,C   9,N  11)          121.9030         0.422867   
     84. A(C   9,C  10,C  14)          118.4937         0.424037   
     85. A(C   8,C  10,C  14)          122.6049         0.422911   
     86. A(C   8,C  10,C   9)          118.8772         0.417143   
     87. A(C   9,N  11,P  34)          120.8401         0.436406   
     88. A(C   9,N  11,C  12)          120.9574         0.435092   
     89. A(C  12,N  11,P  34)          113.8903         0.442368   
     90. A(N  11,C  12,H  31)          115.6030         0.357979   
     91. A(N  11,C  12,C  13)          121.6870         0.441367   
     92. A(C  13,C  12,H  31)          122.6662         0.358235   
     93. A(C  12,C  13,H  32)          119.8207         0.358682   
     94. A(C  12,C  13,C  14)          118.6087         0.440236   
     95. A(C  14,C  13,H  32)          121.3803         0.357561   
     96. A(C  10,C  14,H  33)          119.3017         0.353720   
     97. A(C  10,C  14,C  13)          119.8235         0.434322   
     98. A(C  13,C  14,H  33)          120.8731         0.357134   
     99. A(O  16,C  15,N  17)          125.3897         0.480978   
    100. A(O   5,C  15,N  17)          111.4514         0.434124   
    101. A(O   5,C  15,O  16)          123.1351         0.467023   
    102. A(C  18,N  17,C  19)          115.9445         0.383273   
    103. A(C  15,N  17,C  19)          119.9863         0.413702   
    104. A(C  15,N  17,C  18)          123.8932         0.413329   
    105. A(N  17,C  18,H  25)          110.3107         0.332460   
    106. A(H  23,C  18,H  24)          109.2580         0.291797   
    107. A(H  23,C  18,H  25)          109.3915         0.291083   
    108. A(N  17,C  18,H  24)          110.3605         0.333320   
    109. A(N  17,C  18,H  23)          108.1733         0.332979   
    110. A(H  24,C  18,H  25)          109.3222         0.291365   
    111. A(H  21,C  19,H  22)          109.2799         0.290921   
    112. A(H  20,C  19,H  22)          109.6076         0.291356   
    113. A(N  17,C  19,H  22)          109.8609         0.333028   
    114. A(H  20,C  19,H  21)          109.1347         0.291148   
    115. A(N  17,C  19,H  21)          109.7923         0.332777   
    116. A(N  17,C  19,H  20)          109.1499         0.333302   
    117. A(N  11,P  34,O  36)           98.6705         0.506670   
    118. A(N  11,P  34,O  35)          118.3318         0.544841   
    119. A(O  36,P  34,O  37)          103.7148         0.572383   
    120. A(O  35,P  34,O  37)          112.8928         0.616559   
    121. A(N  11,P  34,O  37)           98.4944         0.499516   
    122. A(O  35,P  34,O  36)          121.3024         0.625753   
    123. A(P  34,O  36,C  38)          121.2949         0.472521   
    124. A(P  34,O  37,C  39)          120.9832         0.468193   
    125. A(H  41,C  38,H  42)          109.7173         0.289856   
    126. A(C  40,C  38,H  42)          111.0167         0.327002   
    127. A(O  36,C  38,H  42)          104.1235         0.334438   
    128. A(C  40,C  38,H  41)          110.1436         0.326339   
    129. A(O  36,C  38,H  41)          109.1139         0.333754   
    130. A(O  36,C  38,C  40)          112.5497         0.379018   
    131. A(C  46,C  39,H  48)          111.4597         0.326636   
    132. A(O  37,C  39,H  48)          104.7697         0.335893   
    133. A(C  46,C  39,H  47)          110.2841         0.326071   
    134. A(O  37,C  39,H  47)          108.9332         0.335306   
    135. A(O  37,C  39,C  46)          111.6238         0.380298   
    136. A(H  47,C  39,H  48)          109.6078         0.289932   
    137. A(H  44,C  40,H  45)          108.7036         0.291681   
    138. A(H  43,C  40,H  45)          109.1641         0.291993   
    139. A(C  38,C  40,H  45)          109.2127         0.328008   
    140. A(H  43,C  40,H  44)          109.0743         0.291551   
    141. A(C  38,C  40,H  44)          110.1660         0.327487   
    142. A(C  38,C  40,H  43)          110.4882         0.327855   
    143. A(H  50,C  46,H  51)          108.9911         0.292055   
    144. A(H  49,C  46,H  51)          109.6170         0.291555   
    145. A(C  39,C  46,H  51)          110.3932         0.327506   
    146. A(H  49,C  46,H  50)          108.6373         0.291721   
    147. A(C  39,C  46,H  50)          109.2387         0.327701   
    148. A(C  39,C  46,H  49)          109.9309         0.327114   
    149. D(C   2,C   1,C   0,C   3)     -5.1303         0.025842   
    150. D(H  28,C   1,C   0,H  27)     -2.0631         0.025842   
    151. D(C   2,C   1,C   0,H  27)    174.8048         0.025842   
    152. D(H  28,C   1,C   0,C   3)    178.0018         0.025842   
    153. D(C   6,C   2,C   1,H  28)   -179.7883         0.030869   
    154. D(H  26,C   2,C   1,C   0)   -175.0545         0.030869   
    155. D(C   6,C   2,C   1,C   0)      3.4001         0.030869   
    156. D(H  26,C   2,C   1,H  28)      1.7570         0.030869   
    157. D(C   4,C   3,C   0,H  27)    179.4854         0.029994   
    158. D(O   5,C   3,C   0,C   1)    170.9454         0.029994   
    159. D(O   5,C   3,C   0,H  27)     -8.9897         0.029994   
    160. D(C   4,C   3,C   0,C   1)     -0.5795         0.029994   
    161. D(C   6,C   4,C   3,O   5)   -164.5344         0.022010   
    162. D(C   9,C   4,C   3,C   0)   -177.6009         0.022010   
    163. D(C   6,C   4,C   3,C   0)      7.7611         0.022010   
    164. D(C   9,C   4,C   3,O   5)     10.1036         0.022010   
    165. D(C  15,O   5,C   3,C   4)   -167.7278         0.025609   
    166. D(C  15,O   5,C   3,C   0)     20.3469         0.025609   
    167. D(C   7,C   6,C   4,C   9)     -7.7227         0.021564   
    168. D(C   2,C   6,C   4,C   9)    175.7273         0.021564   
    169. D(C   2,C   6,C   4,C   3)     -9.3916         0.021564   
    170. D(C   7,C   6,C   4,C   3)    167.1584         0.021564   
    171. D(C   7,C   6,C   2,H  26)      5.9192         0.024783   
    172. D(C   4,C   6,C   2,H  26)   -177.6001         0.024783   
    173. D(C   4,C   6,C   2,C   1)      3.9257         0.024783   
    174. D(C   7,C   6,C   2,C   1)   -172.5550         0.024783   
    175. D(H  29,C   7,C   6,C   4)    179.4003         0.020510   
    176. D(H  29,C   7,C   6,C   2)     -4.1220         0.020510   
    177. D(C   8,C   7,C   6,C   4)     -4.8405         0.020510   
    178. D(C   8,C   7,C   6,C   2)    171.6372         0.020510   
    179. D(C  10,C   8,C   7,C   6)      8.3763         0.035978   
    180. D(H  30,C   8,C   7,H  29)      2.1473         0.035978   
    181. D(H  30,C   8,C   7,C   6)   -173.4759         0.035978   
    182. D(C  10,C   8,C   7,H  29)   -176.0005         0.035978   
    183. D(N  11,C   9,C   4,C   6)   -162.2684         0.020912   
    184. D(N  11,C   9,C   4,C   3)     23.0769         0.020912   
    185. D(C  10,C   9,C   4,C   6)     16.6894         0.020912   
    186. D(C  10,C   9,C   4,C   3)   -157.9653         0.020912   
    187. D(C  14,C  10,C   9,N  11)    -12.6478         0.021398   
    188. D(C  14,C  10,C   9,C   4)    168.3591         0.021398   
    189. D(C   8,C  10,C   9,N  11)    165.6087         0.021398   
    190. D(C   8,C  10,C   9,C   4)    -13.3844         0.021398   
    191. D(C  14,C  10,C   8,H  30)      0.7368         0.020748   
    192. D(C  14,C  10,C   8,C   7)    178.9427         0.020748   
    193. D(C   9,C  10,C   8,H  30)   -177.4443         0.020748   
    194. D(C   9,C  10,C   8,C   7)      0.7617         0.020748   
    195. D(P  34,N  11,C   9,C  10)   -140.9632         0.031496   
    196. D(P  34,N  11,C   9,C   4)     38.0052         0.031496   
    197. D(C  12,N  11,C   9,C  10)     14.2925         0.031496   
    198. D(C  12,N  11,C   9,C   4)   -166.7392         0.031496   
    199. D(H  31,C  12,N  11,P  34)    -25.0854         0.037085   
    200. D(H  31,C  12,N  11,C   9)    178.0597         0.037085   
    201. D(C  13,C  12,N  11,P  34)    152.5660         0.037085   
    202. D(C  13,C  12,N  11,C   9)     -4.2889         0.037085   
    203. D(H  32,C  13,C  12,H  31)     -4.9787         0.029487   
    204. D(H  32,C  13,C  12,N  11)    177.5373         0.029487   
    205. D(C  14,C  13,C  12,H  31)    170.0796         0.029487   
    206. D(C  14,C  13,C  12,N  11)     -7.4044         0.029487   
    207. D(C  10,C  14,C  13,C  12)      8.5719         0.028349   
    208. D(H  33,C  14,C  10,C   9)   -179.1855         0.025140   
    209. D(H  33,C  14,C  10,C   8)      2.6268         0.025140   
    210. D(C  13,C  14,C  10,C   9)      1.2965         0.025140   
    211. D(C  13,C  14,C  10,C   8)   -176.8912         0.025140   
    212. D(H  33,C  14,C  13,H  32)      4.0396         0.028349   
    213. D(H  33,C  14,C  13,C  12)   -170.9384         0.028349   
    214. D(C  10,C  14,C  13,H  32)   -176.4502         0.028349   
    215. D(N  17,C  15,O   5,C   3)   -155.5084         0.025716   
    216. D(O  16,C  15,O   5,C   3)     26.1812         0.025716   
    217. D(C  19,N  17,C  15,O  16)      3.4918         0.040158   
    218. D(C  19,N  17,C  15,O   5)   -174.7727         0.040158   
    219. D(C  18,N  17,C  15,O  16)    178.4696         0.040158   
    220. D(C  18,N  17,C  15,O   5)      0.2051         0.040158   
    221. D(H  25,C  18,N  17,C  15)    -92.1960         0.017369   
    222. D(H  24,C  18,N  17,C  19)   -156.1233         0.017369   
    223. D(H  24,C  18,N  17,C  15)     28.7137         0.017369   
    224. D(H  23,C  18,N  17,C  19)    -36.6448         0.017369   
    225. D(H  23,C  18,N  17,C  15)    148.1922         0.017369   
    226. D(H  22,C  19,N  17,C  15)    121.1184         0.017549   
    227. D(H  21,C  19,N  17,C  18)     65.9588         0.017549   
    228. D(H  21,C  19,N  17,C  15)   -118.6764         0.017549   
    229. D(H  20,C  19,N  17,C  18)   -174.4543         0.017549   
    230. D(H  20,C  19,N  17,C  15)      0.9106         0.017549   
    231. D(O  37,P  34,N  11,C   9)    112.5748         0.005003   
    232. D(O  36,P  34,N  11,C  12)     61.0726         0.005003   
    233. D(O  36,P  34,N  11,C   9)   -142.0425         0.005003   
    234. D(O  35,P  34,N  11,C  12)   -166.1382         0.005003   
    235. D(O  35,P  34,N  11,C   9)     -9.2533         0.005003   
    236. D(C  38,O  36,P  34,O  37)    -84.5144         0.016321   
    237. D(C  38,O  36,P  34,O  35)     43.5859         0.016321   
    238. D(C  38,O  36,P  34,N  11)    174.4733         0.016321   
    239. D(C  39,O  37,P  34,O  36)    155.6896         0.014072   
    240. D(C  39,O  37,P  34,O  35)     22.5654         0.014072   
    241. D(C  39,O  37,P  34,N  11)   -103.1622         0.014072   
    242. D(H  42,C  38,O  36,P  34)   -179.2402         0.017325   
    243. D(H  41,C  38,O  36,P  34)    -62.1499         0.017325   
    244. D(C  40,C  38,O  36,P  34)     60.4342         0.017325   
    245. D(H  48,C  39,O  37,P  34)   -161.3239         0.018274   
    246. D(H  47,C  39,O  37,P  34)    -44.1087         0.018274   
    247. D(C  46,C  39,O  37,P  34)     77.9122         0.018274   
    248. D(H  44,C  40,C  38,H  42)    176.2291         0.012366   
    249. D(H  44,C  40,C  38,H  41)     54.5004         0.012366   
    250. D(H  44,C  40,C  38,O  36)    -67.5027         0.012366   
    251. D(H  43,C  40,C  38,H  42)    -63.1824         0.012366   
    252. D(H  43,C  40,C  38,H  41)    175.0889         0.012366   
    253. D(H  43,C  40,C  38,O  36)     53.0858         0.012366   
    254. D(H  50,C  46,C  39,H  48)     56.9430         0.012207   
    255. D(H  50,C  46,C  39,H  47)    -65.0424         0.012207   
    256. D(H  50,C  46,C  39,O  37)    173.7181         0.012207   
    257. D(H  49,C  46,C  39,H  48)    176.0598         0.012207   
    258. D(H  49,C  46,C  39,H  47)     54.0743         0.012207   
    259. D(H  49,C  46,C  39,O  37)    -67.1652         0.012207   
    -----------------------------------------------------------------

Number of atoms                         .... 52
Number of degrees of freedom            .... 259


         *************************************************************
         *                GEOMETRY OPTIMIZATION CYCLE   1            *
         *************************************************************
---------------------------------
CARTESIAN COORDINATES (ANGSTROEM)
---------------------------------
  C     -3.466026   -0.573749    1.907193
  C     -3.302185   -1.327888    3.070257
  C     -2.075695   -1.420255    3.680708
  C     -2.419556    0.173907    1.415865
  C     -1.176172    0.191184    2.094473
  O     -2.421008    0.803183    0.193995
  C     -0.982458   -0.698859    3.182918
  C      0.332080   -0.896358    3.698797
  C      1.409437   -0.326756    3.109092
  C     -0.073774    0.982221    1.664536
  C      1.241938    0.627226    2.064742
  N     -0.241350    2.089903    0.892387
  C      0.801620    2.668476    0.281283
  C      2.092533    2.224329    0.475545
  C      2.323069    1.258765    1.439830
  C     -3.572146    1.102421   -0.493627
  O     -4.649595    1.277258    0.052980
  N     -3.344867    1.208287   -1.800045
  C     -2.044431    1.024579   -2.411243
  C     -4.407500    1.630400   -2.687215
  H     -5.303034    1.828572   -2.102380
  H     -4.619876    0.842234   -3.410133
  H     -4.109841    2.534007   -3.217418
  H     -2.192574    0.609245   -3.405871
  H     -1.443503    0.337726   -1.822009
  H     -1.525494    1.980382   -2.491580
  H     -1.935889   -2.066506    4.532186
  H     -4.413016   -0.577298    1.391944
  H     -4.146330   -1.879019    3.452769
  H      0.448006   -1.570605    4.532261
  H      2.411809   -0.556191    3.431938
  H      0.565953    3.522138   -0.335359
  H      2.904282    2.685808   -0.061414
  H      3.328452    0.989412    1.724432
  P     -1.610458    3.174232    1.150270
  O     -2.668373    2.750951    2.069067
  O     -1.922467    3.521586   -0.347560
  O     -0.809214    4.443993    1.672616
  C     -3.067592    4.313548   -0.707864
  C     -0.780833    4.775857    3.064357
  C     -3.033939    5.697467   -0.092089
  H     -3.977659    3.787290   -0.402888
  H     -3.021426    4.368462   -1.796761
  H     -2.093602    6.192632   -0.320242
  H     -3.147629    5.630280    0.988684
  H     -3.853670    6.286919   -0.492576
  C      0.187021    3.893554    3.829800
  H     -1.790495    4.675712    3.473863
  H     -0.475650    5.823160    3.094462
  H     -0.176967    2.867415    3.842830
  H      0.261687    4.248306    4.853397
  H      1.172099    3.925517    3.371644

----------------------------
CARTESIAN COORDINATES (A.U.)
----------------------------
  NO LB      ZA    FRAG     MASS         X           Y           Z
   0 C     6.0000    0    12.011   -6.549840   -1.084228    3.604072
   1 C     6.0000    0    12.011   -6.240225   -2.509344    5.801945
   2 C     6.0000    0    12.011   -3.922495   -2.683893    6.955529
   3 C     6.0000    0    12.011   -4.572299    0.328637    2.675598
   4 C     6.0000    0    12.011   -2.222644    0.361285    3.957981
   5 O     8.0000    0    15.999   -4.575041    1.517796    0.366597
   6 C     6.0000    0    12.011   -1.856577   -1.320653    6.014844
   7 C     6.0000    0    12.011    0.627540   -1.693871    6.989713
   8 C     6.0000    0    12.011    2.663450   -0.617480    5.875332
   9 C     6.0000    0    12.011   -0.139412    1.856130    3.145518
  10 C     6.0000    0    12.011    2.346923    1.185286    3.901797
  11 N     7.0000    0    14.007   -0.456085    3.949344    1.686367
  12 C     6.0000    0    12.011    1.514841    5.042688    0.531548
  13 C     6.0000    0    12.011    3.954315    4.203372    0.898650
  14 C     6.0000    0    12.011    4.389963    2.378721    2.720885
  15 C     6.0000    0    12.011   -6.750378    2.083274   -0.932820
  16 O     8.0000    0    15.999   -8.786462    2.413667    0.100118
  17 N     7.0000    0    14.007   -6.320882    2.283332   -3.401591
  18 C     6.0000    0    12.011   -3.863416    1.936174   -4.556589
  19 C     6.0000    0    12.011   -8.328968    3.081010   -5.078101
  20 H     1.0000    0     1.008  -10.021281    3.455500   -3.972922
  21 H     1.0000    0     1.008   -8.730300    1.591592   -6.444217
  22 H     1.0000    0     1.008   -7.766474    4.788580   -6.080039
  23 H     1.0000    0     1.008   -4.143365    1.151307   -6.436163
  24 H     1.0000    0     1.008   -2.727826    0.638209   -3.443098
  25 H     1.0000    0     1.008   -2.882766    3.742381   -4.708403
  26 H     1.0000    0     1.008   -3.658301   -3.905130    8.564591
  27 H     1.0000    0     1.008   -8.339393   -1.090935    2.630393
  28 H     1.0000    0     1.008   -7.835428   -3.550831    6.524788
  29 H     1.0000    0     1.008    0.846608   -2.968013    8.564732
  30 H     1.0000    0     1.008    4.557658   -1.051049    6.485423
  31 H     1.0000    0     1.008    1.069496    6.655876   -0.633736
  32 H     1.0000    0     1.008    5.488298    5.075442   -0.116055
  33 H     1.0000    0     1.008    6.289863    1.869717    3.258704
  34 P    15.0000    0    30.974   -3.043325    5.998429    2.173696
  35 O     8.0000    0    15.999   -5.042495    5.198544    3.909970
  36 O     8.0000    0    15.999   -3.632935    6.654834   -0.656793
  37 O     8.0000    0    15.999   -1.529192    8.397930    3.160786
  38 C     6.0000    0    12.011   -5.796909    8.151424   -1.337670
  39 C     6.0000    0    12.011   -1.475560    9.025061    5.790795
  40 C     6.0000    0    12.011   -5.733314   10.766652   -0.174022
  41 H     1.0000    0     1.008   -7.516687    7.156940   -0.761348
  42 H     1.0000    0     1.008   -5.709668    8.255197   -3.395386
  43 H     1.0000    0     1.008   -3.956335   11.702378   -0.605171
  44 H     1.0000    0     1.008   -5.948156   10.639687    1.868342
  45 H     1.0000    0     1.008   -7.282381   11.880555   -0.930833
  46 C     6.0000    0    12.011    0.353418    7.357750    7.237272
  47 H     1.0000    0     1.008   -3.383546    8.835815    6.564649
  48 H     1.0000    0     1.008   -0.898848   11.004177    5.847686
  49 H     1.0000    0     1.008   -0.334419    5.418629    7.261897
  50 H     1.0000    0     1.008    0.494517    8.028134    9.171592
  51 H     1.0000    0     1.008    2.214947    7.418152    6.371484

--------------------------------
INTERNAL COORDINATES (ANGSTROEM)
--------------------------------
 C      0   0   0     0.000000000000     0.00000000     0.00000000
 C      1   0   0     1.395810924266     0.00000000     0.00000000
 C      2   1   0     1.373120252440   120.77252746     0.00000000
 C      1   2   3     1.376768307603   120.10242426   354.86974316
 C      4   1   2     1.416619527806   120.18617228   359.42049450
 O      4   1   2     1.374393382939   124.40950126   170.94540770
 C      3   2   1     1.401203850867   120.28664000     3.40013684
 C      7   3   2     1.425884675501   121.29503152   187.44499850
 C      8   7   3     1.353845042329   121.18273002   171.63719015
 C      5   4   1     1.423330161534   122.81206127   182.39905119
 C     10   5   4     1.420311282130   119.56814083   202.03471946
 N     10   5   4     1.360607845516   121.90300867    23.07688305
 C     12  10   5     1.340141895509   120.95736118   193.26082465
 C     13  12  10     1.378935080542   121.68698518   355.71110421
 C     14  13  12     1.383945735911   118.60873358   352.59564563
 C      6   4   1     1.373858306627   123.06368707    20.34686264
 O     16   6   4     1.220755568556   123.13505830    26.18117798
 N     16   6   4     1.330259539463   111.45140558   204.49156344
 C     18  16   6     1.448601027703   123.89321988     0.20512195
 C     18  16   6     1.447218404979   119.98627900   185.22729554
 H     20  18  16     1.087789045896   109.14994811     0.91058352
 H     20  18  16     1.090375369801   109.79232552   241.32364346
 H     20  18  16     1.089138051923   109.86093105   121.11841583
 H     19  18  16     1.087994730703   108.17334303   148.19217039
 H     19  18  16     1.086314870584   110.36053308    28.71369506
 H     19  18  16     1.090554770520   110.31065421   267.80396125
 H      3   2   1     1.078054540920   120.48383383   184.94549582
 H      1   2   3     1.078093400036   119.97095835   174.80483147
 H      2   1   3     1.078258640139   118.67621897   183.13206618
 H      8   7   3     1.078290086857   117.73431887   355.87800296
 H      9   8   7     1.077784117653   121.33604630   186.52410022
 H     13  12  10     1.079131919706   115.60295563   178.05970854
 H     14  13  12     1.077137356167   119.82072415   177.53732091
 H     15  14  13     1.079048589991   120.87305386   189.06164104
 P     12  10   5     1.765426611236   120.84007011    38.00516747
 O     35  12  10     1.463741253770   118.33179192   350.74667044
 O     35  12  10     1.568916673602    98.67052883   217.95748360
 O     35  12  10     1.589695787369    98.49436335   112.57478697
 C     37  35  12     1.438170665585   121.29486968   174.47327282
 C     38  35  12     1.431041606885   120.98316006   256.83777961
 C     39  37  35     1.515105614453   112.54973300    60.43419635
 H     39  37  35     1.094614041703   109.11389287   297.85007416
 H     39  37  35     1.091257153601   104.12353427   180.75980411
 H     41  39  37     1.086956904224   110.48816199    53.08578529
 H     41  39  37     1.088810913038   110.16595061   292.49731840
 H     41  39  37     1.086186929475   109.21273751   173.17343057
 C     40  38  35     1.516938235451   111.62376546    77.91220372
 H     40  38  35     1.094140403497   108.93324697   315.89128956
 H     40  38  35     1.091277319577   104.76972772   198.67611126
 H     47  40  38     1.088860840115   109.93086568   292.83481275
 H     47  40  38     1.085898827368   109.23870580   173.71807813
 H     47  40  38     1.086880034998   110.39323819    53.88599932

---------------------------
INTERNAL COORDINATES (A.U.)
---------------------------
 C      0   0   0     0.000000000000     0.00000000     0.00000000
 C      1   0   0     2.637700381599     0.00000000     0.00000000
 C      2   1   0     2.594821226052   120.77252746     0.00000000
 C      1   2   3     2.601715051232   120.10242426   354.86974316
 C      4   1   2     2.677022943519   120.18617228   359.42049450
 O      4   1   2     2.597227094028   124.40950126   170.94540770
 C      3   2   1     2.647891535934   120.28664000     3.40013684
 C      7   3   2     2.694531535253   121.29503152   187.44499850
 C      8   7   3     2.558396357769   121.18273002   171.63719015
 C      5   4   1     2.689704203449   122.81206127   182.39905119
 C     10   5   4     2.683999348144   119.56814083   202.03471946
 N     10   5   4     2.571176203690   121.90300867    23.07688305
 C     12  10   5     2.532501163106   120.95736118   193.26082465
 C     13  12  10     2.605809658680   121.68698518   355.71110421
 C     14  13  12     2.615278425079   118.60873358   352.59564563
 C      6   4   1     2.596215946337   123.06368707    20.34686264
 O     16   6   4     2.306893701030   123.13505830    26.18117798
 N     16   6   4     2.513826216622   111.45140558   204.49156344
 C     18  16   6     2.737459219676   123.89321988     0.20512195
 C     18  16   6     2.734846441380   119.98627900   185.22729554
 H     20  18  16     2.055623388223   109.14994811     0.91058352
 H     20  18  16     2.060510832098   109.79232552   241.32364346
 H     20  18  16     2.058172640166   109.86093105   121.11841583
 H     19  18  16     2.056012076178   108.17334303   148.19217039
 H     19  18  16     2.052837600611   110.36053308    28.71369506
 H     19  18  16     2.060849850325   110.31065421   267.80396125
 H      3   2   1     2.037227839769   120.48383383   184.94549582
 H      1   2   3     2.037301272856   119.97095835   174.80483147
 H      2   1   3     2.037613531397   118.67621897   183.13206618
 H      8   7   3     2.037672957082   117.73431887   355.87800296
 H      9   8   7     2.036716813853   121.33604630   186.52410022
 H     13  12  10     2.039263790616   115.60295563   178.05970854
 H     14  13  12     2.035494611772   119.82072415   177.53732091
 H     15  14  13     2.039106320277   120.87305386   189.06164104
 P     12  10   5     3.336172804773   120.84007011    38.00516747
 O     35  12  10     2.766070100549   118.33179192   350.74667044
 O     35  12  10     2.964822840050    98.67052883   217.95748360
 O     35  12  10     3.004089674375    98.49436335   112.57478697
 C     37  35  12     2.717748691795   121.29486968   174.47327282
 C     38  35  12     2.704276723259   120.98316006   256.83777961
 C     39  37  35     2.863134675282   112.54973300    60.43419635
 H     39  37  35     2.068520761164   109.11389287   297.85007416
 H     39  37  35     2.062177161988   104.12353427   180.75980411
 H     41  39  37     2.054050868358   110.48816199    53.08578529
 H     41  39  37     2.057554437266   110.16595061   292.49731840
 H     41  39  37     2.052595826952   109.21273751   173.17343057
 C     40  38  35     2.866597827076   111.62376546    77.91220372
 H     40  38  35     2.067625714667   108.93324697   315.89128956
 H     40  38  35     2.062215270160   104.76972772   198.67611126
 H     47  40  38     2.057648785768   109.93086568   292.83481275
 H     47  40  38     2.052051392872   109.23870580   173.71807813
 H     47  40  38     2.053905606572   110.39323819    53.88599932

---------------------
BASIS SET INFORMATION
---------------------
There are 5 groups of distinct atoms

 Group   1 Type C   : 11s5p1d contracted to 4s3p1d pattern {6311/311/1}
 Group   2 Type O   : 11s5p1d contracted to 4s3p1d pattern {6311/311/1}
 Group   3 Type N   : 11s5p1d contracted to 4s3p1d pattern {6311/311/1}
 Group   4 Type H   : 5s contracted to 3s pattern {311}
 Group   5 Type P   : 13s9p1d contracted to 6s5p1d pattern {631111/42111/1}

Atom   0C    basis set group =>   1
Atom   1C    basis set group =>   1
Atom   2C    basis set group =>   1
Atom   3C    basis set group =>   1
Atom   4C    basis set group =>   1
Atom   5O    basis set group =>   2
Atom   6C    basis set group =>   1
Atom   7C    basis set group =>   1
Atom   8C    basis set group =>   1
Atom   9C    basis set group =>   1
Atom  10C    basis set group =>   1
Atom  11N    basis set group =>   3
Atom  12C    basis set group =>   1
Atom  13C    basis set group =>   1
Atom  14C    basis set group =>   1
Atom  15C    basis set group =>   1
Atom  16O    basis set group =>   2
Atom  17N    basis set group =>   3
Atom  18C    basis set group =>   1
Atom  19C    basis set group =>   1
Atom  20H    basis set group =>   4
Atom  21H    basis set group =>   4
Atom  22H    basis set group =>   4
Atom  23H    basis set group =>   4
Atom  24H    basis set group =>   4
Atom  25H    basis set group =>   4
Atom  26H    basis set group =>   4
Atom  27H    basis set group =>   4
Atom  28H    basis set group =>   4
Atom  29H    basis set group =>   4
Atom  30H    basis set group =>   4
Atom  31H    basis set group =>   4
Atom  32H    basis set group =>   4
Atom  33H    basis set group =>   4
Atom  34P    basis set group =>   5
Atom  35O    basis set group =>   2
Atom  36O    basis set group =>   2
Atom  37O    basis set group =>   2
Atom  38C    basis set group =>   1
Atom  39C    basis set group =>   1
Atom  40C    basis set group =>   1
Atom  41H    basis set group =>   4
Atom  42H    basis set group =>   4
Atom  43H    basis set group =>   4
Atom  44H    basis set group =>   4
Atom  45H    basis set group =>   4
Atom  46C    basis set group =>   1
Atom  47H    basis set group =>   4
Atom  48H    basis set group =>   4
Atom  49H    basis set group =>   4
Atom  50H    basis set group =>   4
Atom  51H    basis set group =>   4
---------------------------------
AUXILIARY/J BASIS SET INFORMATION
---------------------------------
There are 5 groups of distinct atoms

 Group   1 Type C   : 12s5p4d2f1g contracted to 6s4p3d1f1g pattern {711111/2111/211/2/1}
 Group   2 Type O   : 12s5p4d2f1g contracted to 6s4p3d1f1g pattern {711111/2111/211/2/1}
 Group   3 Type N   : 12s5p4d2f1g contracted to 6s4p3d1f1g pattern {711111/2111/211/2/1}
 Group   4 Type H   : 5s2p1d contracted to 3s1p1d pattern {311/2/1}
 Group   5 Type P   : 14s5p5d2f1g contracted to 8s4p3d1f1g pattern {71111111/2111/311/2/1}

Atom   0C    basis set group =>   1
Atom   1C    basis set group =>   1
Atom   2C    basis set group =>   1
Atom   3C    basis set group =>   1
Atom   4C    basis set group =>   1
Atom   5O    basis set group =>   2
Atom   6C    basis set group =>   1
Atom   7C    basis set group =>   1
Atom   8C    basis set group =>   1
Atom   9C    basis set group =>   1
Atom  10C    basis set group =>   1
Atom  11N    basis set group =>   3
Atom  12C    basis set group =>   1
Atom  13C    basis set group =>   1
Atom  14C    basis set group =>   1
Atom  15C    basis set group =>   1
Atom  16O    basis set group =>   2
Atom  17N    basis set group =>   3
Atom  18C    basis set group =>   1
Atom  19C    basis set group =>   1
Atom  20H    basis set group =>   4
Atom  21H    basis set group =>   4
Atom  22H    basis set group =>   4
Atom  23H    basis set group =>   4
Atom  24H    basis set group =>   4
Atom  25H    basis set group =>   4
Atom  26H    basis set group =>   4
Atom  27H    basis set group =>   4
Atom  28H    basis set group =>   4
Atom  29H    basis set group =>   4
Atom  30H    basis set group =>   4
Atom  31H    basis set group =>   4
Atom  32H    basis set group =>   4
Atom  33H    basis set group =>   4
Atom  34P    basis set group =>   5
Atom  35O    basis set group =>   2
Atom  36O    basis set group =>   2
Atom  37O    basis set group =>   2
Atom  38C    basis set group =>   1
Atom  39C    basis set group =>   1
Atom  40C    basis set group =>   1
Atom  41H    basis set group =>   4
Atom  42H    basis set group =>   4
Atom  43H    basis set group =>   4
Atom  44H    basis set group =>   4
Atom  45H    basis set group =>   4
Atom  46C    basis set group =>   1
Atom  47H    basis set group =>   4
Atom  48H    basis set group =>   4
Atom  49H    basis set group =>   4
Atom  50H    basis set group =>   4
Atom  51H    basis set group =>   4
------------------------------------------------------------------------------
                             ORCA STARTUP CALCULATIONS
                           -- RI-GTO INTEGRALS CHOSEN --
------------------------------------------------------------------------------
------------------------------------------------------------------------------
                   ___                                                        
                  /   \      - P O W E R E D   B Y -                         
                 /     \                                                     
                 |  |  |   _    _      __       _____    __    __             
                 |  |  |  | |  | |    /  \     |  _  \  |  |  /  |          
                  \  \/   | |  | |   /    \    | | | |  |  | /  /          
                 / \  \   | |__| |  /  /\  \   | |_| |  |  |/  /          
                |  |  |   |  __  | /  /__\  \  |    /   |      \           
                |  |  |   | |  | | |   __   |  |    \   |  |\   \          
                \     /   | |  | | |  |  |  |  | |\  \  |  | \   \       
                 \___/    |_|  |_| |__|  |__|  |_| \__\ |__|  \__/        
                                                                              
                      - O R C A' S   B I G   F R I E N D -                    
                                      &                                       
                       - I N T E G R A L  F E E D E R -                       
                                                                              
 v1 FN, 2020, v2 2021, v3 2022-2024                                           
------------------------------------------------------------------------------


----------------------
SHARK INTEGRAL PACKAGE
----------------------

Number of atoms                             ...     52
Number of basis functions                   ...    584
Number of shells                            ...    300
Maximum angular momentum                    ...      2
Integral batch strategy                     ... SHARK/LIBINT Hybrid
RI-J (if used) integral strategy            ... SPLIT-RIJ (Revised 2003 algorithm where possible)
Printlevel                                  ...      1
Contraction scheme used                     ... SEGMENTED contraction
Prescreening option                         ... SCHWARTZ
   Thresh                                   ... 2.500e-11
   Tcut                                     ... 2.500e-12
   Tpresel                                  ... 2.500e-12 
Coulomb Range Separation                    ... NOT USED
Exchange Range Separation                   ... NOT USED
Multipole approximations                    ... NOT USED
Finite Nucleus Model                        ... NOT USED
CABS basis                                  ... NOT available
Auxiliary Coulomb fitting basis             ... AVAILABLE
   # of basis functions in Aux-J            ...   1638
   # of shells in Aux-J                     ...    542
   Maximum angular momentum in Aux-J        ...      4
Auxiliary J/K fitting basis                 ... NOT available
Auxiliary Correlation fitting basis         ... NOT available
Auxiliary 'external' fitting basis          ... NOT available

Checking pre-screening integrals            ... done (  0.0 sec) Dimension = 300
Check shell pair data                       ... done (  0.0 sec)
Shell pair information
Shell pair cut-off parameter TPreSel        ...   2.5e-12
Total number of shell pairs                 ...     45150
Shell pairs after pre-screening             ...     30847
Total number of primitive shell pairs       ...    182167
Primitive shell pairs kept                  ...     72189
          la=0 lb=0:  11153 shell pairs
          la=1 lb=0:  11404 shell pairs
          la=1 lb=1:   2951 shell pairs
          la=2 lb=0:   3286 shell pairs
          la=2 lb=1:   1775 shell pairs
          la=2 lb=2:    278 shell pairs

Calculating one electron integrals          ... done (  0.2 sec)
Calculating RI/J V-Matrix + Cholesky decomp.... done (  0.9 sec)
Calculating Nuclear repulsion               ... done (  0.0 sec) ENN=   3221.410495107157 Eh

Diagonalization of the overlap matrix:
Smallest eigenvalue                        ... 8.599e-05
Time for diagonalization                   ...    0.072 sec
Threshold for overlap eigenvalues          ... 1.000e-07
Number of eigenvalues below threshold      ... 0
Time for construction of square roots      ...    0.119 sec
Total time needed                          ...    0.214 sec

-------------------
DFT GRID GENERATION
-------------------

General Integration Accuracy     IntAcc      ... 4.388
Radial Grid Type                 RadialGrid  ... OptM3 with GC (2021)
Angular Grid (max. ang.)         AngularGrid ... 4 (Lebedev-302)
Angular grid pruning method      GridPruning ... 4 (adaptive)
Weight generation scheme         WeightScheme... mBecke (2022)
Basis function cutoff            BFCut       ... 1.0000e-11
Integration weight cutoff        WCut        ... 1.0000e-14
Partially contracted basis set               ... off
Rotationally invariant grid construction     ... off
Angular grids for H and He will be reduced by one unit

Total number of grid points                  ...   243682
Total number of batches                      ...     3832
Average number of points per batch           ...       63
Average number of grid points per atom       ...     4686

--------------------
COSX GRID GENERATION
--------------------

GRIDX 1
-------
General Integration Accuracy     IntAcc      ... 3.816
Radial Grid Type                 RadialGrid  ... OptM3 with GC (2021)
Angular Grid (max. ang.)         AngularGrid ... 1 (Lebedev-50)
Angular grid pruning method      GridPruning ... 4 (adaptive)
Weight generation scheme         WeightScheme... mBecke (2022)
Basis function cutoff            BFCut       ... 1.0000e-11
Integration weight cutoff        WCut        ... 1.0000e-14
Partially contracted basis set               ... on
Rotationally invariant grid construction     ... off
Angular grids for H and He will be reduced by one unit

Total number of grid points                  ...    31885
Total number of batches                      ...      277
Average number of points per batch           ...      115
Average number of grid points per atom       ...      613
UseSFitting                                  ... on

GRIDX 2
-------
General Integration Accuracy     IntAcc      ... 4.020
Radial Grid Type                 RadialGrid  ... OptM3 with GC (2021)
Angular Grid (max. ang.)         AngularGrid ... 2 (Lebedev-110)
Angular grid pruning method      GridPruning ... 4 (adaptive)
Weight generation scheme         WeightScheme... mBecke (2022)
Basis function cutoff            BFCut       ... 1.0000e-11
Integration weight cutoff        WCut        ... 1.0000e-14
Partially contracted basis set               ... on
Rotationally invariant grid construction     ... off
Angular grids for H and He will be reduced by one unit

Total number of grid points                  ...    66169
Total number of batches                      ...      543
Average number of points per batch           ...      121
Average number of grid points per atom       ...     1272
UseSFitting                                  ... on

GRIDX 3
-------
General Integration Accuracy     IntAcc      ... 4.338
Radial Grid Type                 RadialGrid  ... OptM3 with GC (2021)
Angular Grid (max. ang.)         AngularGrid ... 3 (Lebedev-194)
Angular grid pruning method      GridPruning ... 4 (adaptive)
Weight generation scheme         WeightScheme... mBecke (2022)
Basis function cutoff            BFCut       ... 1.0000e-11
Integration weight cutoff        WCut        ... 1.0000e-14
Partially contracted basis set               ... on
Rotationally invariant grid construction     ... off
Angular grids for H and He will be reduced by one unit

Total number of grid points                  ...   144516
Total number of batches                      ...     1157
Average number of points per batch           ...      124
Average number of grid points per atom       ...     2779
UseSFitting                                  ... on
Initializing property integral containers    ... done (  0.0 sec)

SHARK setup successfully completed in  15.4 seconds

Maximum memory used throughout the entire STARTUP-calculation: 130.8 MB
-------------------------------------------------------------------------------
                                 ORCA GUESS
                   Start orbitals & Density for SCF / CASSCF
-------------------------------------------------------------------------------

------------
SCF SETTINGS
------------
Hamiltonian:
 Density Functional     Method          .... DFT(GTOs)
 Exchange Functional    Exchange        .... B88
   X-Alpha parameter    XAlpha          ....  0.666667
   Becke's b parameter  XBeta           ....  0.004200
 Correlation Functional Correlation     .... LYP
 LDA part of GGA corr.  LDAOpt          .... VWN-3
 Gradients option       PostSCFGGA      .... off
 Hybrid DFT is turned on
   Fraction HF Exchange ScalHFX         ....  0.200000
   Scaling of DF-GGA-X  ScalDFX         ....  0.720000
   Scaling of DF-GGA-C  ScalDFC         ....  0.810000
   Scaling of DF-LDA-C  ScalLDAC        ....  1.000000
   Perturbative correction              ....  0.000000
   NL short-range parameter             ....  4.800000
 RI-approximation to the Coulomb term is turned on
   Number of AuxJ basis functions       .... 1638
   RIJ-COSX (HFX calculated with COS-X)).... on


General Settings:
 Integral files         IntName         .... 5
 Hartree-Fock type      HFTyp           .... RHF
 Total Charge           Charge          ....    1
 Multiplicity           Mult            ....    1
 Number of Electrons    NEL             ....  212
 Basis Dimension        Dim             ....  584
 Nuclear Repulsion      ENuc            ....   3221.4104951072 Eh

Convergence Acceleration:
 AO-DIIS                CNVDIIS         .... on
   Start iteration      DIISMaxIt       ....    12
   Startup error        DIISStart       ....  0.200000
   # of expansion vecs  DIISMaxEq       ....     5
   Bias factor          DIISBfac        ....   1.050
   Max. coefficient     DIISMaxC        ....  10.000
 MO-DIIS                CNVKDIIS        .... off
 Trust-Rad. Augm. Hess. CNVTRAH         .... auto
   Auto Start mean grad. ratio tolernc. ....  1.125000
   Auto Start start iteration           ....    50
   Auto Start num. interpolation iter.  ....    10
   Max. Number of Micro iterations      ....    24
   Max. Number of Macro iterations      .... Maxiter - #DIIS iter
   Number of Davidson start vectors     ....     2
   Converg. threshold    (grad. norm)   ....   1.000e-05
   Grad. Scal. Fac. for Micro threshold ....   0.100
   Minimum threshold for Micro iter.    ....   1.000e-02
   NR start threshold (gradient norm)   ....   1.000e-04
   Initial trust radius                 ....   0.400
   Minimum AH scaling param. (alpha)    ....   1.000
   Maximum AH scaling param. (alpha)    .... 1000.000
   Quad. conv. algorithm                .... NR
   White noise on init. David. guess    .... on
   Maximum white noise                  ....   0.010
   Pseudo random numbers                .... off
   Inactive MOs                         .... canonical
   Orbital update algorithm             .... Taylor
   Preconditioner                       .... Diag
   Full preconditioner red. dimension   ....   250
 SOSCF                  CNVSOSCF        .... on
   Start iteration      SOSCFMaxIt      ....   150
   Startup grad/error   SOSCFStart      ....  0.003300
   Hessian update       SOSCFHessUp     .... L-BFGS
 Level Shifting         CNVShift        .... on
   Level shift para.    LevelShift      ....    0.2500
   Turn off err/grad.   ShiftErr        ....    0.0010
 Zerner damping         CNVZerner       .... off
 Static damping         CNVDamp         .... on
   Fraction old density DampFac         ....    0.7000
   Max. Damping (<1)    DampMax         ....    0.9800
   Min. Damping (>=0)   DampMin         ....    0.0000
   Turn off err/grad.   DampErr         ....    0.1000

SCF Procedure:
 Maximum # iterations   MaxIter         ....   125
 SCF integral mode      SCFMode         .... Direct
   Integral package                     .... SHARK and LIBINT hybrid scheme
 Reset frequency        DirectResetFreq ....    20
 Integral Threshold     Thresh          ....  2.500e-11 Eh
 Primitive CutOff       TCut            ....  2.500e-12 Eh

Convergence Tolerance:
 Convergence Check Mode ConvCheckMode   .... Total+1el-Energy
 Convergence forced     ConvForced      .... 0
 Energy Change          TolE            ....  1.000e-08 Eh
 1-El. energy change                    ....  1.000e-05 Eh
 Orbital Gradient       TolG            ....  1.000e-05
 Orbital Rotation angle TolX            ....  1.000e-05
 DIIS Error             TolErr          ....  5.000e-07

------------------------------
INITIAL GUESS: MODEL POTENTIAL
------------------------------
Loading Hartree-Fock densities                     ... done
Calculating cut-offs                               ... done
Initializing the effective Hamiltonian             ... done
Setting up the integral package (SHARK)            ... done
Starting the Coulomb interaction                   ... done (   4.0 sec)
Making the grid                                    ... done (   1.7 sec)
Mapping shells                                     ... done
Starting the XC term evaluation                    ... done (   1.3 sec)
  promolecular density results
     # of electrons  =    212.998727916
     EX              =   -187.065193885
     EC              =     -7.428786209
     EX+EC           =   -194.493980093
Transforming the Hamiltonian                       ... done (   0.0 sec)
Diagonalizing the Hamiltonian                      ... done (   0.1 sec)
Back transforming the eigenvectors                 ... done (   0.1 sec)
Now organizing SCF variables                       ... done
                      ------------------
                      INITIAL GUESS DONE (   7.3 sec)
                      ------------------
             **** ENERGY FILE WAS UPDATED (5.en.tmp) ****
Finished Guess after   8.1 sec
Maximum memory used throughout the entire GUESS-calculation: 82.1 MB

-------------------------------------------------------------------------------------------
                                      ORCA LEAN-SCF
                              memory conserving SCF solver
-------------------------------------------------------------------------------------------

--------------------
CPCM SOLVATION MODEL
--------------------
CPCM parameters:
  Epsilon                                         ...      80.1510
  Refrac                                          ...       1.3328
  Rsolv                                           ...       1.3000
  Surface type                                    ... GAUSSIAN VDW
  Discretization scheme                           ... Constant charge density
    Threshold for H atoms                         ...       5.0000 (charges/Ang^2)
    Threshold for non-H atoms                     ...       5.0000 (charges/Ang^2)
  Epsilon function type                           ...         CPCM
Solvent:                                          ... WATER
Radii:
  Scheme                                          ... Element-dependent radii
  Radius for C  used is    3.8550 Bohr (=   2.0400 Ang.)
  Radius for O  used is    3.4469 Bohr (=   1.8240 Ang.)
  Radius for N  used is    3.5149 Bohr (=   1.8600 Ang.)
  Radius for H  used is    2.4944 Bohr (=   1.3200 Ang.)
  Radius for P  used is    4.0818 Bohr (=   2.1600 Ang.)
Calculating surface                               ...        done! (  0.0s)
Cavity surface points                             ...         4155
Cavity Volume                                     ...    3021.4065
Cavity Surface-area                               ...    1430.9389
Calculating surface distance matrix               ...        done! (  0.1s)
Performing Cholesky decomposition & store         ...        done! (  2.6s)
Overall time for CPCM initialization              ...                 2.8s

----------------------------------------D-I-I-S--------------------------------------------
Iteration    Energy (Eh)           Delta-E    RMSDP     MaxDP     DIISErr   Damp  Time(sec)
-------------------------------------------------------------------------------------------
               ***  Starting incremental Fock matrix formation  ***
    1    -1602.9664973415419809     0.00e+00  1.76e-03  1.21e-01  4.09e-01  0.700  74.4
    2    -1603.3610555806453704    -3.95e-01  1.08e-03  5.50e-02  1.38e-01  0.700  40.2
                               ***Turning on AO-DIIS***
    3    -1603.5053535175802608    -1.44e-01  3.89e-04  1.45e-02  4.76e-02  0.700  38.6
    4    -1603.5964534984486818    -9.11e-02  6.76e-04  2.66e-02  2.22e-02  0.000  35.8
    5    -1603.7989926801465117    -2.03e-01  1.47e-04  6.53e-03  6.54e-03  0.000  37.1
                              *** Initializing SOSCF ***
---------------------------------------S-O-S-C-F--------------------------------------
Iteration    Energy (Eh)           Delta-E    RMSDP     MaxDP     MaxGrad    Time(sec)
--------------------------------------------------------------------------------------
    6    -1603.7999821093053470    -9.89e-04  4.46e-05  1.47e-03  2.04e-03    33.8
               *** Restarting incremental Fock matrix formation ***
    7    -1603.7999728900713308     9.22e-06  3.53e-05  1.41e-03  4.00e-04    74.3
    8    -1603.7999530455408603     1.98e-05  2.04e-05  8.71e-04  8.62e-04    47.2
    9    -1603.7999884169366851    -3.54e-05  2.66e-06  1.05e-04  2.61e-05    43.5
   10    -1603.7999883609800236     5.60e-08  1.25e-06  7.14e-05  4.00e-05    33.9
   11    -1603.7999885118169914    -1.51e-07  8.86e-07  3.67e-05  9.97e-06    28.9
   12    -1603.7999884842583924     2.76e-08  4.46e-07  1.92e-05  8.74e-06    28.4
   13    -1603.7999885128974711    -2.86e-08  1.51e-07  4.70e-06  1.10e-06    24.9
                  *** Gradient check signals convergence ***

               *****************************************************
               *                     SUCCESS                       *
               *           SCF CONVERGED AFTER  13 CYCLES          *
               *****************************************************

Recomputing exchange energy using gridx3       ... done (  114.316 sec)
Old exchange energy                            :    -37.912509143 Eh
New exchange energy                            :    -37.912531231 Eh
Exchange energy change after final integration :     -0.000022088 Eh
Total energy after final integration           :  -1603.800010601 Eh
             **** ENERGY FILE WAS UPDATED (5.en.tmp) ****

----------------
TOTAL SCF ENERGY
----------------

Total Energy       :      -1603.80001060107497 Eh          -43641.61699 eV

Components:
Nuclear Repulsion  :       3221.41049510715675 Eh           87659.03607 eV
Electronic Energy  :      -4825.12695741646166 Eh         -131298.37959 eV
One Electron Energy:      -8575.43017424512982 Eh         -233349.31829 eV
Two Electron Energy:       3750.30321682866816 Eh          102050.93870 eV
CPCM Dielectric    :         -0.08352620359288 Eh              -2.27286 eV

Virial components:
Potential Energy   :      -3203.24475781209549 Eh          -87164.72123 eV
Kinetic Energy     :       1599.44474721102051 Eh           43523.10424 eV
Virial Ratio       :          2.00272298458427

DFT components:
N(Alpha)           :      105.999813311441 electrons
N(Beta)            :      105.999813311441 electrons
N(Total)           :      211.999626622882 electrons
E(X)               :     -150.674533934798 Eh       
E(C)               :       -9.482183492222 Eh       
E(XC)              :     -160.156717427020 Eh       

CPCM Solvation Model Properties:
Surface-charge          :         -1.02901405469345
Corrected charge        :         -1.00000000000000
Outlying charge corr.   :          0.00004254984327 Eh               0.00116 eV
Free-energy (cav+disp)  :  This term is not implemented in the current solvation scheme

---------------
SCF CONVERGENCE
---------------

  Last Energy change         ...    2.8639e-08  Tolerance :   1.0000e-08
  Last MAX-Density change    ...    4.6997e-06  Tolerance :   1.0000e-07
  Last RMS-Density change    ...    1.5111e-07  Tolerance :   5.0000e-09
  Last DIIS Error            ...    2.0429e-03  Tolerance :   5.0000e-07
  Last Orbital Gradient      ...    1.0954e-06  Tolerance :   1.0000e-05
  Last Orbital Rotation      ...    5.3896e-06  Tolerance :   1.0000e-05


----------------
ORBITAL ENERGIES
----------------

  NO   OCC          E(Eh)            E(eV) 
   0   2.0000     -77.226255     -2101.4332 
   1   2.0000     -19.196713      -522.3691 
   2   2.0000     -19.183640      -522.0134 
   3   2.0000     -19.171898      -521.6939 
   4   2.0000     -19.121513      -520.3228 
   5   2.0000     -19.103250      -519.8259 
   6   2.0000     -14.432799      -392.7364 
   7   2.0000     -14.358828      -390.7236 
   8   2.0000     -10.334257      -281.2094 
   9   2.0000     -10.278939      -279.7041 
  10   2.0000     -10.272496      -279.5288 
  11   2.0000     -10.271295      -279.4962 
  12   2.0000     -10.242682      -278.7176 
  13   2.0000     -10.236516      -278.5498 
  14   2.0000     -10.234717      -278.5008 
  15   2.0000     -10.231614      -278.4164 
  16   2.0000     -10.220518      -278.1144 
  17   2.0000     -10.218897      -278.0703 
  18   2.0000     -10.215925      -277.9894 
  19   2.0000     -10.201956      -277.6093 
  20   2.0000     -10.201243      -277.5899 
  21   2.0000     -10.198337      -277.5109 
  22   2.0000     -10.198321      -277.5104 
  23   2.0000     -10.196197      -277.4526 
  24   2.0000     -10.189912      -277.2816 
  25   2.0000     -10.188700      -277.2486 
  26   2.0000     -10.166034      -276.6319 
  27   2.0000     -10.165556      -276.6188 
  28   2.0000      -6.708798      -182.5557 
  29   2.0000      -4.870962      -132.5456 
  30   2.0000      -4.870317      -132.5281 
  31   2.0000      -4.869693      -132.5111 
  32   2.0000      -1.146558       -31.1994 
  33   2.0000      -1.130220       -30.7548 
  34   2.0000      -1.076313       -29.2880 
  35   2.0000      -1.051818       -28.6214 
  36   2.0000      -1.041801       -28.3488 
  37   2.0000      -1.016023       -27.6474 
  38   2.0000      -0.964773       -26.2528 
  39   2.0000      -0.914363       -24.8811 
  40   2.0000      -0.878227       -23.8978 
  41   2.0000      -0.849902       -23.1270 
  42   2.0000      -0.822116       -22.3709 
  43   2.0000      -0.792707       -21.5707 
  44   2.0000      -0.784364       -21.3436 
  45   2.0000      -0.774033       -21.0625 
  46   2.0000      -0.771163       -20.9844 
  47   2.0000      -0.734433       -19.9849 
  48   2.0000      -0.726555       -19.7706 
  49   2.0000      -0.712087       -19.3769 
  50   2.0000      -0.697473       -18.9792 
  51   2.0000      -0.685271       -18.6472 
  52   2.0000      -0.669541       -18.2191 
  53   2.0000      -0.652693       -17.7607 
  54   2.0000      -0.651703       -17.7338 
  55   2.0000      -0.613609       -16.6972 
  56   2.0000      -0.604286       -16.4435 
  57   2.0000      -0.569889       -15.5075 
  58   2.0000      -0.564349       -15.3567 
  59   2.0000      -0.560230       -15.2446 
  60   2.0000      -0.552051       -15.0221 
  61   2.0000      -0.547079       -14.8868 
  62   2.0000      -0.543551       -14.7908 
  63   2.0000      -0.518751       -14.1159 
  64   2.0000      -0.514969       -14.0130 
  65   2.0000      -0.510568       -13.8933 
  66   2.0000      -0.504854       -13.7378 
  67   2.0000      -0.500723       -13.6254 
  68   2.0000      -0.498589       -13.5673 
  69   2.0000      -0.490151       -13.3377 
  70   2.0000      -0.482015       -13.1163 
  71   2.0000      -0.469411       -12.7733 
  72   2.0000      -0.465065       -12.6551 
  73   2.0000      -0.460840       -12.5401 
  74   2.0000      -0.458085       -12.4651 
  75   2.0000      -0.456502       -12.4220 
[...]
133:   3041.81   0.002726   13.77  0.000280  ( 0.014037 -0.005722  0.007060)
134:   3043.28   0.018285   92.40  0.001875  (-0.000236 -0.000294  0.043299)
135:   3048.29   0.004375   22.11  0.000448  ( 0.002320  0.005276 -0.020365)
136:   3087.52   0.004359   22.03  0.000441  (-0.014827  0.012755  0.007620)
137:   3089.26   0.014340   72.47  0.001449  ( 0.009768  0.036679  0.002789)
138:   3095.15   0.003729   18.84  0.000376  ( 0.003629  0.018816 -0.002957)
139:   3096.84   0.001373    6.94  0.000138  (-0.009094  0.007034  0.002491)
140:   3108.23   0.009607   48.55  0.000965  ( 0.005164 -0.027119 -0.014226)
141:   3113.34   0.011718   59.22  0.001175  (-0.027824  0.006753  0.018836)
142:   3113.40   0.002248   11.36  0.000225  (-0.008738  0.010458 -0.006290)
143:   3120.60   0.002856   14.43  0.000286  (-0.001226 -0.014592 -0.008437)
144:   3150.01   0.009156   46.27  0.000907  (-0.022275 -0.018904 -0.007313)
145:   3157.28   0.005638   28.49  0.000557  ( 0.008284  0.021052 -0.006742)
146:   3179.32   0.001360    6.87  0.000133  ( 0.009683 -0.003059 -0.005512)
147:   3186.85   0.000654    3.30  0.000064  ( 0.007695  0.002133  0.000513)
148:   3191.18   0.000359    1.81  0.000035  (-0.004037  0.001271 -0.004143)
149:   3197.73   0.001780    9.00  0.000174  ( 0.009173 -0.004386  0.008389)
150:   3201.01   0.004962   25.07  0.000484  ( 0.011662  0.015777 -0.009939)
151:   3203.19   0.000286    1.45  0.000028  ( 0.003707  0.002825 -0.002485)
152:   3206.38   0.002685   13.57  0.000261  ( 0.007458 -0.010710  0.009540)
153:   3233.07   0.000276    1.39  0.000027  (-0.000707  0.004585 -0.002263)
154:   3243.01   0.000026    0.13  0.000003  ( 0.000381 -0.000138 -0.001542)
155:   3252.26   0.002136   10.80  0.000205  ( 0.000173  0.013245 -0.005435)

* The epsilon (eps) is given for a Dirac delta lineshape.
** The dipole moment derivative (T) already includes vibrational overlap.

The first frequency considered to be a vibration is 6
The total number of vibrations considered is 150


--------------------------
THERMOCHEMISTRY AT 298.15K
--------------------------

Temperature         ...   298.15 K
Pressure            ...     1.00 atm
Total Mass          ...   403.39 AMU
Quasi RRHO          ...     True
Cut-Off Frequency   ...     1.00 cm^-1

Throughout the following assumptions are being made:
  (1) The electronic state is orbitally nondegenerate
  (2) There are no thermally accessible electronically excited states
  (3) Hindered rotations indicated by low frequency modes are not
      treated as such but are treated as vibrations and this may
      cause some error
  (4) All equations used are the standard statistical mechanics
      equations for an ideal gas
  (5) All vibrations are strictly harmonic

freq.      23.47  E(vib)   ...       0.56 
freq.      29.65  E(vib)   ...       0.55 
freq.      33.38  E(vib)   ...       0.55 
freq.      38.07  E(vib)   ...       0.54 
freq.      46.73  E(vib)   ...       0.53 
freq.      53.52  E(vib)   ...       0.52 
freq.      56.07  E(vib)   ...       0.52 
freq.      64.25  E(vib)   ...       0.51 
freq.      72.78  E(vib)   ...       0.49 
freq.      74.51  E(vib)   ...       0.49 
freq.      87.62  E(vib)   ...       0.48 
freq.      96.95  E(vib)   ...       0.46 
freq.     104.38  E(vib)   ...       0.46 
freq.     124.73  E(vib)   ...       0.43 
freq.     133.93  E(vib)   ...       0.42 
freq.     152.39  E(vib)   ...       0.40 
freq.     184.00  E(vib)   ...       0.37 
freq.     190.43  E(vib)   ...       0.36 
freq.     207.13  E(vib)   ...       0.34 
freq.     222.71  E(vib)   ...       0.33 
freq.     235.98  E(vib)   ...       0.32 
freq.     249.44  E(vib)   ...       0.31 
freq.     253.51  E(vib)   ...       0.30 
freq.     254.43  E(vib)   ...       0.30 
freq.     266.06  E(vib)   ...       0.29 
freq.     274.76  E(vib)   ...       0.28 
freq.     304.04  E(vib)   ...       0.26 
freq.     309.57  E(vib)   ...       0.26 
freq.     336.62  E(vib)   ...       0.24 
freq.     351.95  E(vib)   ...       0.23 
freq.     381.59  E(vib)   ...       0.21 
freq.     396.43  E(vib)   ...       0.20 
freq.     414.47  E(vib)   ...       0.19 
freq.     434.03  E(vib)   ...       0.17 
freq.     440.34  E(vib)   ...       0.17 
freq.     473.62  E(vib)   ...       0.15 
freq.     482.08  E(vib)   ...       0.15 
freq.     496.67  E(vib)   ...       0.14 
freq.     511.14  E(vib)   ...       0.14 
freq.     517.24  E(vib)   ...       0.13 
freq.     523.73  E(vib)   ...       0.13 
freq.     540.40  E(vib)   ...       0.12 
freq.     559.68  E(vib)   ...       0.12 
freq.     584.16  E(vib)   ...       0.11 
freq.     624.57  E(vib)   ...       0.09 
freq.     628.04  E(vib)   ...       0.09 
freq.     660.01  E(vib)   ...       0.08 
freq.     706.58  E(vib)   ...       0.07 
freq.     719.48  E(vib)   ...       0.07 
freq.     723.44  E(vib)   ...       0.07 
freq.     743.28  E(vib)   ...       0.06 
freq.     759.90  E(vib)   ...       0.06 
freq.     774.83  E(vib)   ...       0.05 
freq.     781.45  E(vib)   ...       0.05 
freq.     788.03  E(vib)   ...       0.05 
freq.     814.12  E(vib)   ...       0.05 
freq.     817.16  E(vib)   ...       0.05 
freq.     820.74  E(vib)   ...       0.05 
freq.     823.64  E(vib)   ...       0.05 
freq.     838.64  E(vib)   ...       0.04 
freq.     848.79  E(vib)   ...       0.04 
freq.     900.82  E(vib)   ...       0.03 
freq.     907.44  E(vib)   ...       0.03 
freq.     948.16  E(vib)   ...       0.03 
freq.     960.81  E(vib)   ...       0.03 
freq.     975.90  E(vib)   ...       0.03 
freq.     982.63  E(vib)   ...       0.02 
freq.     986.42  E(vib)   ...       0.02 
freq.     994.88  E(vib)   ...       0.02 
freq.     998.06  E(vib)   ...       0.02 
freq.    1015.00  E(vib)   ...       0.02 
freq.    1018.89  E(vib)   ...       0.02 
freq.    1030.62  E(vib)   ...       0.02 
freq.    1061.44  E(vib)   ...       0.02 
freq.    1081.78  E(vib)   ...       0.02 
freq.    1113.53  E(vib)   ...       0.01 
freq.    1113.99  E(vib)   ...       0.01 
freq.    1123.09  E(vib)   ...       0.01 
freq.    1131.25  E(vib)   ...       0.01 
freq.    1133.67  E(vib)   ...       0.01 
freq.    1137.19  E(vib)   ...       0.01 
freq.    1152.46  E(vib)   ...       0.01 
freq.    1175.76  E(vib)   ...       0.01 
freq.    1179.18  E(vib)   ...       0.01 
freq.    1181.33  E(vib)   ...       0.01 
freq.    1187.00  E(vib)   ...       0.01 
freq.    1201.14  E(vib)   ...       0.01 
freq.    1213.95  E(vib)   ...       0.01 
freq.    1238.60  E(vib)   ...       0.01 
freq.    1258.45  E(vib)   ...       0.01 
freq.    1273.68  E(vib)   ...       0.01 
freq.    1283.60  E(vib)   ...       0.01 
freq.    1289.59  E(vib)   ...       0.01 
freq.    1298.83  E(vib)   ...       0.01 
freq.    1319.52  E(vib)   ...       0.01 
freq.    1324.70  E(vib)   ...       0.01 
freq.    1347.52  E(vib)   ...       0.01 
freq.    1358.40  E(vib)   ...       0.01 
freq.    1407.80  E(vib)   ...       0.00 
freq.    1409.52  E(vib)   ...       0.00 
freq.    1414.88  E(vib)   ...       0.00 
freq.    1421.78  E(vib)   ...       0.00 
freq.    1423.02  E(vib)   ...       0.00 
freq.    1426.17  E(vib)   ...       0.00 
freq.    1449.81  E(vib)   ...       0.00 
freq.    1453.92  E(vib)   ...       0.00 
freq.    1459.61  E(vib)   ...       0.00 
freq.    1471.34  E(vib)   ...       0.00 
freq.    1478.06  E(vib)   ...       0.00 
freq.    1483.64  E(vib)   ...       0.00 
freq.    1486.88  E(vib)   ...       0.00 
freq.    1491.82  E(vib)   ...       0.00 
freq.    1491.87  E(vib)   ...       0.00 
freq.    1495.68  E(vib)   ...       0.00 
freq.    1500.86  E(vib)   ...       0.00 
freq.    1504.46  E(vib)   ...       0.00 
freq.    1517.04  E(vib)   ...       0.00 
freq.    1519.72  E(vib)   ...       0.00 
freq.    1526.37  E(vib)   ...       0.00 
freq.    1536.19  E(vib)   ...       0.00 
freq.    1555.16  E(vib)   ...       0.00 
freq.    1598.82  E(vib)   ...       0.00 
freq.    1618.94  E(vib)   ...       0.00 
freq.    1640.56  E(vib)   ...       0.00 
freq.    1658.74  E(vib)   ...       0.00 
freq.    1760.50  E(vib)   ...       0.00 
freq.    3038.49  E(vib)   ...       0.00 
freq.    3041.81  E(vib)   ...       0.00 
freq.    3043.28  E(vib)   ...       0.00 
freq.    3048.29  E(vib)   ...       0.00 
freq.    3087.52  E(vib)   ...       0.00 
freq.    3089.26  E(vib)   ...       0.00 
freq.    3095.15  E(vib)   ...       0.00 
freq.    3096.84  E(vib)   ...       0.00 
freq.    3108.23  E(vib)   ...       0.00 
freq.    3113.34  E(vib)   ...       0.00 
freq.    3113.40  E(vib)   ...       0.00 
freq.    3120.60  E(vib)   ...       0.00 
freq.    3150.01  E(vib)   ...       0.00 
freq.    3157.28  E(vib)   ...       0.00 
freq.    3179.32  E(vib)   ...       0.00 
freq.    3186.85  E(vib)   ...       0.00 
freq.    3191.18  E(vib)   ...       0.00 
freq.    3197.73  E(vib)   ...       0.00 
freq.    3201.01  E(vib)   ...       0.00 
freq.    3203.19  E(vib)   ...       0.00 
freq.    3206.38  E(vib)   ...       0.00 
freq.    3233.07  E(vib)   ...       0.00 
freq.    3243.01  E(vib)   ...       0.00 
freq.    3252.26  E(vib)   ...       0.00 

------------
INNER ENERGY
------------

The inner energy is: U= E(el) + E(ZPE) + E(vib) + E(rot) + E(trans)
    E(el)   - is the total energy from the electronic structure calculation
              = E(kin-el) + E(nuc-el) + E(el-el) + E(nuc-nuc)
    E(ZPE)  - the the zero temperature vibrational energy from the frequency calculation
    E(vib)  - the the finite temperature correction to E(ZPE) due to population
              of excited vibrational states
    E(rot)  - is the rotational thermal energy
    E(trans)- is the translational thermal energy

Summary of contributions to the inner energy U:
Electronic energy                ...  -1603.81855063 Eh
Zero point energy                ...      0.41909449 Eh     262.99 kcal/mol
Thermal vibrational correction   ...      0.02530755 Eh      15.88 kcal/mol
Thermal rotational correction    ...      0.00141627 Eh       0.89 kcal/mol
Thermal translational correction ...      0.00141627 Eh       0.89 kcal/mol
-----------------------------------------------------------------------
Total thermal energy                  -1603.37131605 Eh


Summary of corrections to the electronic energy:
(perhaps to be used in another calculation)
Total thermal correction                  0.02814009 Eh      17.66 kcal/mol
Non-thermal (ZPE) correction              0.41909449 Eh     262.99 kcal/mol
-----------------------------------------------------------------------
Total correction                          0.44723458 Eh     280.64 kcal/mol


--------
ENTHALPY
--------

The enthalpy is H = U + kB*T
                kB is Boltzmann's constant
Total thermal energy              ...  -1603.37131605 Eh 
Thermal Enthalpy correction       ...      0.00094421 Eh       0.59 kcal/mol
-----------------------------------------------------------------------
Total Enthalpy                    ...  -1603.37037184 Eh


Note: Only C1 symmetry has been detected, increase convergence thresholds 
      if your molecule has a higher symmetry. Symmetry factor of 1.0 is   
      used for the rotational entropy correction. 
 

Note: Rotational entropy computed according to Herzberg 
Infrared and Raman Spectra, Chapter V,1, Van Nostrand Reinhold, 1945 
Point Group:  C1, Symmetry Number:   1  
Rotational constants in cm-1:     0.007035     0.006015     0.004308 

Vibrational entropy computed according to the QRRHO of S. Grimme
Chem.Eur.J. 2012 18 9955 using a reference frequency of 100.0 cm-1


-------
ENTROPY
-------

The entropy contributions are T*S = T*(S(el)+S(vib)+S(rot)+S(trans))
     S(el)   - electronic entropy
     S(vib)  - vibrational entropy
     S(rot)  - rotational entropy
     S(trans)- translational entropy
The entropies will be listed as multiplied by the temperature to get
units of energy

Electronic entropy                ...      0.00000000 Eh      0.00 kcal/mol
Vibrational entropy               ...      0.04560819 Eh     28.62 kcal/mol
Rotational entropy                ...      0.01683656 Eh     10.57 kcal/mol
Translational entropy             ...      0.02084658 Eh     13.08 kcal/mol
-----------------------------------------------------------------------
Final entropy term                ...      0.08329133 Eh     52.27 kcal/mol

In case the symmetry of your molecule has not been determined correctly
or in case you have a reason to use a different symmetry number we print 
out the resulting rotational entropy values for sn=1,12:

 non-linear molecules -----------------------------------
|  sn= 1 | S(rot)=       0.01683656 Eh     10.57 kcal/mol|
|  sn= 2 | S(rot)=       0.01618210 Eh     10.15 kcal/mol|
|  sn= 3 | S(rot)=       0.01579927 Eh      9.91 kcal/mol|
|  sn= 4 | S(rot)=       0.01552765 Eh      9.74 kcal/mol|
|  sn= 5 | S(rot)=       0.01531696 Eh      9.61 kcal/mol|
|  sn= 6 | S(rot)=       0.01514482 Eh      9.50 kcal/mol|
|  sn= 7 | S(rot)=       0.01499927 Eh      9.41 kcal/mol|
|  sn= 8 | S(rot)=       0.01487319 Eh      9.33 kcal/mol|
|  sn= 9 | S(rot)=       0.01476198 Eh      9.26 kcal/mol|
|  sn=10 | S(rot)=       0.01466250 Eh      9.20 kcal/mol|
|  sn=11 | S(rot)=       0.01457251 Eh      9.14 kcal/mol|
|  sn=12 | S(rot)=       0.01449036 Eh      9.09 kcal/mol|
 linear molecules ---------------------------------------
|  Dinfh | S(rot)=       0.01046902 Eh      6.57 kcal/mol|
|  Cinfv | S(rot)=       0.01112348 Eh      6.98 kcal/mol|
 --------------------------------------------------------


-------------------
GIBBS FREE ENERGY
-------------------

The Gibbs free energy is G = H - T*S

Total enthalpy                    ...  -1603.37037184 Eh 
Total entropy correction          ...     -0.08329133 Eh    -52.27 kcal/mol
-----------------------------------------------------------------------
Final Gibbs free energy         ...  -1603.45366317 Eh

For completeness - the Gibbs free energy minus the electronic energy
G-E(el)                           ...      0.36488745 Eh    228.97 kcal/mol


Maximum memory used throughout the entire PROP-calculation: 479.6 MB

--------------------------------
SUGGESTED CITATIONS FOR THIS RUN
--------------------------------

Below you find a list of papers that are relevant to this ORCA run
We neither can nor want to force you to cite these papers, but we appreciate if you do
You receive ORCA, which is the product of decades of hard work by many enthusiastic individuals, for free
The only thing we kindly ask in return is that you cite our papers,
We deeply appreciate it, if you show your appreciation for ORCA by not just citing the generic ORCA reference.

Please note that relegating all ORCA citations to the supporting information does *not* help us.
SI sections are not indexed - citations you put there will not count into any citation statistics
But we need these citations in order to attract the funding resources that allow us to do what we are doing

Therefore, if you are a happy ORCA user, please consider citing a few of the papers listed below in the main body of your paper

In addition to the list printed below, the program has created the file 5.bibtex that contains the list in bibtex format
You can import this file easily into all common literature databanks and citation aid programs


List of essential papers. We consider these as the minimum necessary citations

  1. Neese,F.
     Software update: the ORCA program system, version 5.0
     WIRES Comput. Molec. Sci., 2022 12(1)e1606
     doi.org/10.1002/wcms.1606

List of papers to cite with high priority. The work reported in these papers was absolutely
necessary for this run to complete.
Our perspective: the developers of density functionals and basis sets usually get cited in chemistry papers
Good! But without the algorithms to do something with them, the functionals or basis sets would not do anything.
Hence, in our opinion, the algorithm design and method developments papers are equally worthy of getting cited

  1. Neese,F.
     An improvement of the resolution of the identity approximation for the formation of the Coulomb matrix
     J. Comp. Chem., 2003 24(14)1740-1747
     doi.org/10.1002/jcc.10318
  2. Neese,F.; Wennmohs,F.; Hansen,A.; Becker,U.
     Efficient, approximate and parallel Hartree-Fock and hybrid DFT calculations. A 'chain-of-spheres' algorithm for the Hartree-Fock exchange
     Chem. Phys., 2009 356(1-3)98-109
     doi.org/10.1016/j.chemphys.2008.10.036
  3. Bykov,D.; Petrenko,T.; Izsak,R.; Kossmann,S.; Becker,U.; Valeev,E.; Neese,F.
     Efficient implementation of the analytic second derivatives of Hartree-Fock and hybrid DFT energies: a detailed analysis of different approximations
     Molec. Phys., 2015 113 1961-1977
     doi.org/10.1080/00268976.2015.1025114
  4. Garcia-Rates,M.; Neese,F.
     Efficient implementation of the analytical second derivatives of hartree-fock and hybrid DFT energies within the framework of the conductor-like polarizable continuum model
     J. Comput. Chem., 2019 40 1816-1828
     doi.org/10.1002/jcc.25833
  5. Garcia-Rates,M.; Neese,F.
     Effect of the Solute Cavity on the Solvation Energy and its Derivatives within the Framework of the Gaussian Charge Scheme
     J. Comput. Chem., 2020 41 922-939
     doi.org/10.1002/jcc.26139
  6. Helmich-Paris,B.; de Souza,B.; Neese,F.; Izsák,R.
     An improved chain of spheres for exchange algorithm
     J. Chem. Phys., 2021 155 104109
     doi.org/doi: 10.1063/5.0058766.
  7. Neese,F.
     The SHARK Integral Generation and Digestion System
     J. Comp. Chem., 2022  1-16
     doi.org/10.1002/jcc.26942

List of suggested additional citations. These are papers that are important in the 'surrounding' of 
of this run, or papers that preceded the highly important papers. If you like your results we are grateful for a citation.

  1. Izsak,R.; Neese,F.
     An overlap fitted chain of spheres exchange method
     J. Chem. Phys., 2011 135 144105
     doi.org/10.1063/1.3646921
  2. Izsak,R.; Hansen,A.; Neese,F.
     The resolution of identity and chain of spheres approximations for the LPNO-CCSD singles Fock term
     Molec. Phys., 2012 110 2413-2417
     doi.org/10.1080/00268976.2012.687466
  3. Neese,F.
     The ORCA program system
     WIRES Comput. Molec. Sci., 2012 2(1)73-78
     doi.org/10.1002/wcms.81
  4. Izsak,R.; Neese,F.; Klopper,W.
     Robust fitting techniques in the chain of spheres approximation to the Fock exchange: The role of the complementary space
     J. Chem. Phys., 2013 139 
     doi.org/10.1063/1.4819264
  5. Neese,F.
     Software update: the ORCA program system, version 4.0
     WIRES Comput. Molec. Sci., 2018 8(1)1-6
     doi.org/10.1002/wcms.1327
  6. Neese,F.; Wennmohs,F.; Becker,U.; Riplinger,C.
     The ORCA quantum chemistry program package
     J. Chem. Phys., 2020 152 Art. No. L224108
     doi.org/10.1063/5.0004608

List of optional additional citations

  1. Neese,F.
     Approximate second-order SCF convergence for spin unrestricted wavefunctions
     Chem. Phys. Lett., 2000 325(1-3)93-98
     doi.org/10.1016/s0009-2614(00)00662-x

Timings for individual modules:

Sum of individual times          ...    58761.243 sec (= 979.354 min)
Startup calculation              ...      899.223 sec (=  14.987 min)   1.5 %
SCF iterations                   ...    27018.052 sec (= 450.301 min)  46.0 %
Property integrals               ...     4038.603 sec (=  67.310 min)   6.9 %
SCF Response                     ...     6508.863 sec (= 108.481 min)  11.1 %
Property calculations            ...     3792.689 sec (=  63.211 min)   6.5 %
SCF Gradient evaluation          ...    16497.492 sec (= 274.958 min)  28.1 %
Geometry relaxation              ...        6.319 sec (=   0.105 min)   0.0 %
                             ****ORCA TERMINATED NORMALLY****
TOTAL RUN TIME: 0 days 16 hours 19 minutes 40 seconds 648 msec
