[Molden Format]
[Title]
 Molden file created by orca_2mkl for BaseName=HBQ-KETO_ESD

[Atoms] AU
C    1   6         -5.8130674439        -0.2878279279         0.1181110830 
C    2   6         -5.8313906698        -2.9086566180         0.0340625813 
C    3   6         -3.6085273631        -4.3110852211        -0.0582874590 
C    4   6         -1.2825587106        -3.0569822075        -0.0690824426 
C    5   6         -1.2198637285        -0.3651830283         0.0151045688 
C    6   6         -3.5283229480         1.1047730688         0.1129171630 
O    7   8         -3.4860126564         3.5450688208         0.1915003576 
C    8   6          1.1805615019         0.8327551555        -0.0002541796 
C    9   6          3.4791585277        -0.5455080445        -0.0941334668 
C   10   6          3.3369250386        -3.2449319351        -0.1770362731 
C   11   6          1.0619370618        -4.4247841880        -0.1641838088 
N   12   7          1.2932911865         3.3998170878         0.0786964243 
C   13   6          3.4565354641         4.6969435625         0.0733296623 
C   14   6          5.7438585712         3.4355877417        -0.0157066252 
C   15   6          5.7451127380         0.8119382168        -0.0992828845 
H   16   1         -0.5517847439         4.1892618824         0.1452794852 
H   17   1         -7.5694440680         0.7618806351         0.1906059395 
H   18   1         -7.6311835052        -3.8877561248         0.0416031954 
H   19   1         -3.6597114518        -6.3547868694        -0.1222265362 
H   20   1          0.9705391890        -6.4695220722        -0.2274325993 
H   21   1          5.0800318358        -4.3137781224        -0.2492434619 
H   22   1          7.5176909142        -0.2096999297        -0.1690104486 
H   23   1          3.3003279562         6.7332873743         0.1420015214 
H   24   1          7.4873497739         4.4991644822        -0.0186814592 
[GTO]
  1 0
s   6 1.0 
    13575.3496820000         0.5435905310
     2035.2333680000         1.0145543947
      463.2256235900         1.7315731970
      131.2001959800         2.6910376290
       42.8530158910         3.6044547126
       15.5841857660         3.7025556986
s   2 1.0 
        6.2067138508         1.8383540830
        2.5764896527         0.5447575605
s   1 1.0 
        0.5769633942         0.4718145038
s   1 1.0 
        0.2297283136         0.2364944676
s   1 1.0 
        0.0951644400         0.1221141848
p   4 1.0 
       34.6972322440         1.3596651507
        7.9582622826         1.4512589486
        2.3780826883         1.2709231419
        0.8143320818         0.8025721189
p   1 1.0 
        0.2888754725         0.3018758868
p   1 1.0 
        0.1005682367         0.0807265016
d   1 1.0 
        1.0970000000         3.3522135855
d   1 1.0 
        0.3180000000         0.3838994974

  2 0
s   6 1.0 
    13575.3496820000         0.5435905310
     2035.2333680000         1.0145543947
      463.2256235900         1.7315731970
      131.2001959800         2.6910376290
       42.8530158910         3.6044547126
       15.5841857660         3.7025556986
s   2 1.0 
        6.2067138508         1.8383540830
        2.5764896527         0.5447575605
s   1 1.0 
        0.5769633942         0.4718145038
s   1 1.0 
        0.2297283136         0.2364944676
s   1 1.0 
        0.0951644400         0.1221141848
p   4 1.0 
       34.6972322440         1.3596651507
        7.9582622826         1.4512589486
        2.3780826883         1.2709231419
        0.8143320818         0.8025721189
p   1 1.0 
        0.2888754725         0.3018758868
p   1 1.0 
        0.1005682367         0.0807265016
d   1 1.0 
        1.0970000000         3.3522135855
d   1 1.0 
        0.3180000000         0.3838994974

  3 0
s   6 1.0 
    13575.3496820000         0.5435905310
     2035.2333680000         1.0145543947
      463.2256235900         1.7315731970
      131.2001959800         2.6910376290
       42.8530158910         3.6044547126
       15.5841857660         3.7025556986
s   2 1.0 
        6.2067138508         1.8383540830
        2.5764896527         0.5447575605
s   1 1.0 
        0.5769633942         0.4718145038
s   1 1.0 
        0.2297283136         0.2364944676
s   1 1.0 
        0.0951644400         0.1221141848
p   4 1.0 
       34.6972322440         1.3596651507
        7.9582622826         1.4512589486
        2.3780826883         1.2709231419
        0.8143320818         0.8025721189
p   1 1.0 
        0.2888754725         0.3018758868
p   1 1.0 
        0.1005682367         0.0807265016
d   1 1.0 
        1.0970000000         3.3522135855
d   1 1.0 
        0.3180000000         0.3838994974

  4 0
s   6 1.0 
    13575.3496820000         0.5435905310
     2035.2333680000         1.0145543947
      463.2256235900         1.7315731970
      131.2001959800         2.6910376290
       42.8530158910         3.6044547126
       15.5841857660         3.7025556986
s   2 1.0 
        6.2067138508         1.8383540830
        2.5764896527         0.5447575605
s   1 1.0 
        0.5769633942         0.4718145038
s   1 1.0 
        0.2297283136         0.2364944676
s   1 1.0 
        0.0951644400         0.1221141848
p   4 1.0 
       34.6972322440         1.3596651507
        7.9582622826         1.4512589486
        2.3780826883         1.2709231419
        0.8143320818         0.8025721189
p   1 1.0 
        0.2888754725         0.3018758868
p   1 1.0 
        0.1005682367         0.0807265016
d   1 1.0 
        1.0970000000         3.3522135855
d   1 1.0 
        0.3180000000         0.3838994974

  5 0
s   6 1.0 
    13575.3496820000         0.5435905310
     2035.2333680000         1.0145543947
      463.2256235900         1.7315731970
      131.2001959800         2.6910376290
       42.8530158910         3.6044547126
       15.5841857660         3.7025556986
s   2 1.0 
        6.2067138508         1.8383540830
        2.5764896527         0.5447575605
s   1 1.0 
        0.5769633942         0.4718145038
s   1 1.0 
        0.2297283136         0.2364944676
s   1 1.0 
        0.0951644400         0.1221141848
p   4 1.0 
       34.6972322440         1.3596651507
        7.9582622826         1.4512589486
        2.3780826883         1.2709231419
        0.8143320818         0.8025721189
p   1 1.0 
        0.2888754725         0.3018758868
p   1 1.0 
        0.1005682367         0.0807265016
d   1 1.0 
        1.0970000000         3.3522135855
d   1 1.0 
        0.3180000000         0.3838994974

  6 0
s   6 1.0 
    13575.3496820000         0.5435905310
     2035.2333680000         1.0145543947
      463.2256235900         1.7315731970
      131.2001959800         2.6910376290
       42.8530158910         3.6044547126
       15.5841857660         3.7025556986
s   2 1.0 
        6.2067138508         1.8383540830
        2.5764896527         0.5447575605
s   1 1.0 
        0.5769633942         0.4718145038
s   1 1.0 
        0.2297283136         0.2364944676
s   1 1.0 
        0.0951644400         0.1221141848
p   4 1.0 
       34.6972322440         1.3596651507
        7.9582622826         1.4512589486
        2.3780826883         1.2709231419
        0.8143320818         0.8025721189
p   1 1.0 
        0.2888754725         0.3018758868
p   1 1.0 
        0.1005682367         0.0807265016
d   1 1.0 
        1.0970000000         3.3522135855
d   1 1.0 
        0.3180000000         0.3838994974

  7 0
s   6 1.0 
    27032.3826310000         0.8598581479
     4052.3871392000         1.6055305368
      922.3272271000         2.7458778516
      261.2407098900         4.2987674426
       85.3546413510         5.8797663284
       31.0350352450         6.3163983216
s   2 1.0 
       12.2608607280         2.9812147522
        4.9987076005         0.9419559635
s   1 1.0 
        1.1703108158         0.8019291610
s   1 1.0 
        0.4647474099         0.4011648062
s   1 1.0 
        0.1850453636         0.2010799406
p   4 1.0 
       63.2749548010         3.0572017144
       14.6270493790         3.3844839414
        4.4501223456         2.9474262132
        1.5275799647         1.7118271494
p   1 1.0 
        0.5293511794         0.6436057926
p   1 1.0 
        0.1747842127         0.1610897254
d   1 1.0 
        2.3140000000        12.3767310624
d   1 1.0 
        0.6450000000         1.3234257612

  8 0
s   6 1.0 
    13575.3496820000         0.5435905310
     2035.2333680000         1.0145543947
      463.2256235900         1.7315731970
      131.2001959800         2.6910376290
       42.8530158910         3.6044547126
       15.5841857660         3.7025556986
s   2 1.0 
        6.2067138508         1.8383540830
        2.5764896527         0.5447575605
s   1 1.0 
        0.5769633942         0.4718145038
s   1 1.0 
        0.2297283136         0.2364944676
s   1 1.0 
        0.0951644400         0.1221141848
p   4 1.0 
       34.6972322440         1.3596651507
        7.9582622826         1.4512589486
        2.3780826883         1.2709231419
        0.8143320818         0.8025721189
p   1 1.0 
        0.2888754725         0.3018758868
p   1 1.0 
        0.1005682367         0.0807265016
d   1 1.0 
        1.0970000000         3.3522135855
d   1 1.0 
        0.3180000000         0.3838994974

  9 0
s   6 1.0 
    13575.3496820000         0.5435905310
     2035.2333680000         1.0145543947
      463.2256235900         1.7315731970
      131.2001959800         2.6910376290
       42.8530158910         3.6044547126
       15.5841857660         3.7025556986
s   2 1.0 
        6.2067138508         1.8383540830
        2.5764896527         0.5447575605
s   1 1.0 
        0.5769633942         0.4718145038
s   1 1.0 
        0.2297283136         0.2364944676
s   1 1.0 
        0.0951644400         0.1221141848
p   4 1.0 
       34.6972322440         1.3596651507
        7.9582622826         1.4512589486
        2.3780826883         1.2709231419
        0.8143320818         0.8025721189
p   1 1.0 
        0.2888754725         0.3018758868
p   1 1.0 
        0.1005682367         0.0807265016
d   1 1.0 
        1.0970000000         3.3522135855
d   1 1.0 
        0.3180000000         0.3838994974

 10 0
s   6 1.0 
    13575.3496820000         0.5435905310
     2035.2333680000         1.0145543947
      463.2256235900         1.7315731970
      131.2001959800         2.6910376290
       42.8530158910         3.6044547126
       15.5841857660         3.7025556986
s   2 1.0 
        6.2067138508         1.8383540830
        2.5764896527         0.5447575605
s   1 1.0 
        0.5769633942         0.4718145038
s   1 1.0 
        0.2297283136         0.2364944676
s   1 1.0 
        0.0951644400         0.1221141848
p   4 1.0 
       34.6972322440         1.3596651507
        7.9582622826         1.4512589486
        2.3780826883         1.2709231419
        0.8143320818         0.8025721189
p   1 1.0 
        0.2888754725         0.3018758868
p   1 1.0 
        0.1005682367         0.0807265016
d   1 1.0 
        1.0970000000         3.3522135855
d   1 1.0 
        0.3180000000         0.3838994974

 11 0
s   6 1.0 
    13575.3496820000         0.5435905310
     2035.2333680000         1.0145543947
      463.2256235900         1.7315731970
      131.2001959800         2.6910376290
       42.8530158910         3.6044547126
       15.5841857660         3.7025556986
s   2 1.0 
        6.2067138508         1.8383540830
        2.5764896527         0.5447575605
s   1 1.0 
        0.5769633942         0.4718145038
s   1 1.0 
        0.2297283136         0.2364944676
s   1 1.0 
        0.0951644400         0.1221141848
p   4 1.0 
       34.6972322440         1.3596651507
        7.9582622826         1.4512589486
        2.3780826883         1.2709231419
        0.8143320818         0.8025721189
p   1 1.0 
        0.2888754725         0.3018758868
p   1 1.0 
        0.1005682367         0.0807265016
d   1 1.0 
        1.0970000000         3.3522135855
d   1 1.0 
        0.3180000000         0.3838994974

 12 0
s   6 1.0 
    19730.8006470000         0.6956035199
     2957.8958745000         1.2986099328
      673.2213359500         2.2190880635
      190.6824949400         3.4636607549
       62.2954418980         4.6967555531
       22.6541611820         4.9522510945
s   2 1.0 
        8.9791477428         2.3880677979
        3.6863002370         0.7337878750
s   1 1.0 
        0.8466007680         0.6290267082
s   1 1.0 
        0.3364713377         0.3148626514
s   1 1.0 
        0.1364765367         0.1600308040
p   4 1.0 
       49.2003805100         2.1264813968
       11.3467905370         2.3279367185
        3.4273972411         2.0485729192
        1.1785525134         1.2607319854
p   1 1.0 
        0.4164220497         0.4768230427
p   1 1.0 
        0.1426082601         0.1249168256
d   1 1.0 
        1.6540000000         6.8771297418
d   1 1.0 
        0.4690000000         0.7577440909

 13 0
s   6 1.0 
    13575.3496820000         0.5435905310
     2035.2333680000         1.0145543947
      463.2256235900         1.7315731970
      131.2001959800         2.6910376290
       42.8530158910         3.6044547126
       15.5841857660         3.7025556986
s   2 1.0 
        6.2067138508         1.8383540830
        2.5764896527         0.5447575605
s   1 1.0 
        0.5769633942         0.4718145038
s   1 1.0 
        0.2297283136         0.2364944676
s   1 1.0 
        0.0951644400         0.1221141848
p   4 1.0 
       34.6972322440         1.3596651507
        7.9582622826         1.4512589486
        2.3780826883         1.2709231419
        0.8143320818         0.8025721189
p   1 1.0 
        0.2888754725         0.3018758868
p   1 1.0 
        0.1005682367         0.0807265016
d   1 1.0 
        1.0970000000         3.3522135855
d   1 1.0 
        0.3180000000         0.3838994974

 14 0
s   6 1.0 
    13575.3496820000         0.5435905310
     2035.2333680000         1.0145543947
      463.2256235900         1.7315731970
      131.2001959800         2.6910376290
       42.8530158910         3.6044547126
       15.5841857660         3.7025556986
s   2 1.0 
        6.2067138508         1.8383540830
        2.5764896527         0.5447575605
s   1 1.0 
        0.5769633942         0.4718145038
s   1 1.0 
        0.2297283136         0.2364944676
s   1 1.0 
        0.0951644400         0.1221141848
p   4 1.0 
       34.6972322440         1.3596651507
        7.9582622826         1.4512589486
        2.3780826883         1.2709231419
        0.8143320818         0.8025721189
p   1 1.0 
        0.2888754725         0.3018758868
p   1 1.0 
        0.1005682367         0.0807265016
d   1 1.0 
        1.0970000000         3.3522135855
d   1 1.0 
        0.3180000000         0.3838994974

 15 0
s   6 1.0 
    13575.3496820000         0.5435905310
     2035.2333680000         1.0145543947
      463.2256235900         1.7315731970
      131.2001959800         2.6910376290
       42.8530158910         3.6044547126
       15.5841857660         3.7025556986
s   2 1.0 
        6.2067138508         1.8383540830
        2.5764896527         0.5447575605
s   1 1.0 
        0.5769633942         0.4718145038
s   1 1.0 
        0.2297283136         0.2364944676
s   1 1.0 
        0.0951644400         0.1221141848
p   4 1.0 
       34.6972322440         1.3596651507
        7.9582622826         1.4512589486
        2.3780826883         1.2709231419
        0.8143320818         0.8025721189
p   1 1.0 
        0.2888754725         0.3018758868
p   1 1.0 
        0.1005682367         0.0807265016
d   1 1.0 
        1.0970000000         3.3522135855
d   1 1.0 
        0.3180000000         0.3838994974

 16 0
s   3 1.0 
       34.0613410000         0.2556299169
        5.1235746000         0.4613599649
        1.1646626000         0.6811214941
s   1 1.0 
        0.3272304100         0.3083545312
s   1 1.0 
        0.1030724100         0.1296483265
p   1 1.0 
        0.8000000000         1.0784563492

 17 0
s   3 1.0 
       34.0613410000         0.2556299169
        5.1235746000         0.4613599649
        1.1646626000         0.6811214941
s   1 1.0 
        0.3272304100         0.3083545312
s   1 1.0 
        0.1030724100         0.1296483265
p   1 1.0 
        0.8000000000         1.0784563492

 18 0
s   3 1.0 
       34.0613410000         0.2556299169
        5.1235746000         0.4613599649
        1.1646626000         0.6811214941
s   1 1.0 
        0.3272304100         0.3083545312
s   1 1.0 
        0.1030724100         0.1296483265
p   1 1.0 
        0.8000000000         1.0784563492

 19 0
s   3 1.0 
       34.0613410000         0.2556299169
        5.1235746000         0.4613599649
        1.1646626000         0.6811214941
s   1 1.0 
        0.3272304100         0.3083545312
s   1 1.0 
        0.1030724100         0.1296483265
p   1 1.0 
        0.8000000000         1.0784563492

 20 0
s   3 1.0 
       34.0613410000         0.2556299169
        5.1235746000         0.4613599649
        1.1646626000         0.6811214941
s   1 1.0 
        0.3272304100         0.3083545312
s   1 1.0 
        0.1030724100         0.1296483265
p   1 1.0 
        0.8000000000         1.0784563492

 21 0
s   3 1.0 
       34.0613410000         0.2556299169
        5.1235746000         0.4613599649
        1.1646626000         0.6811214941
s   1 1.0 
        0.3272304100         0.3083545312
s   1 1.0 
        0.1030724100         0.1296483265
p   1 1.0 
        0.8000000000         1.0784563492

 22 0
s   3 1.0 
       34.0613410000         0.2556299169
        5.1235746000         0.4613599649
        1.1646626000         0.6811214941
s   1 1.0 
        0.3272304100         0.3083545312
s   1 1.0 
        0.1030724100         0.1296483265
p   1 1.0 
        0.8000000000         1.0784563492

 23 0
s   3 1.0 
       34.0613410000         0.2556299169
        5.1235746000         0.4613599649
        1.1646626000         0.6811214941
s   1 1.0 
        0.3272304100         0.3083545312
s   1 1.0 
        0.1030724100         0.1296483265
p   1 1.0 
        0.8000000000         1.0784563492

 24 0
s   3 1.0 
       34.0613410000         0.2556299169
        5.1235746000         0.4613599649
        1.1646626000         0.6811214941
s   1 1.0 
        0.3272304100         0.3083545312
s   1 1.0 
        0.1030724100         0.1296483265
p   1 1.0 
        0.8000000000         1.0784563492

[5D]
[7F]
[9G]
[MO]
 Sym= X
 Ene= -0.999136
 Spin= Alpha
 Occup= -0.999136
         1   -1.557238E-02
         2   -3.372077E-02
         3    5.654634E-02
         4    5.907315E-02
         5   -4.376362E-01
         6    1.035222E-01
         7    8.609369E-02
         8   -4.316190E-04
         9    4.280819E-02
        10    3.030969E-02
        11   -7.703907E-04
        12   -2.148067E-01
        13    9.786704E-02
        14    7.245086E-03
        15    1.452561E-04
        16    7.002857E-05
        17   -2.374552E-04
        18    4.656512E-03
        19    5.122529E-03
        20    5.219311E-03
        21    3.242654E-04
        22    4.091547E-04
        23   -1.528781E-02
        24   -7.156875E-03
        25    5.731222E-03
        26    1.264016E-02
        27   -2.188458E-02
        28   -4.731553E-02
        29    3.475600E-01
        30   -3.381719E-02
        31   -4.570486E-02
        32   -1.705218E-03
        33   -1.761744E-02
        34   -4.896310E-02
        35   -2.017901E-03
        36    1.389923E-01
        37    2.539407E-02
        38   -2.751286E-03
        39    5.072069E-04
        40    1.317573E-04
        41   -2.494994E-04
        42    2.345379E-03
        43    5.146492E-03
        44    7.114166E-04
        45    5.706235E-05
        46   -3.479980E-04
        47    5.561686E-03
        48    3.547221E-03
        49   -7.478139E-05
        50   -1.880357E-04
        51    9.337364E-04
        52   -1.639905E-02
        53   -4.404368E-01
        54    3.135558E-02
        55    5.846852E-03
        56   -4.571579E-04
        57    2.161978E-02
        58   -6.012801E-04
        59   -4.539363E-04
        60    8.212462E-03
        61   -1.318392E-01
        62   -4.310086E-03
        63    1.005940E-04
        64    1.369244E-04
        65   -1.014066E-04
        66    8.810866E-04
        67    3.111372E-03
        68   -9.866890E-04
        69    3.751789E-04
        70    3.435408E-05
        71   -3.936265E-03
        72    6.642120E-03
        73   -5.345893E-03
        74   -1.180446E-02
        75    2.251208E-02
        76    2.794974E-02
        77    9.108742E-02
        78   -3.807934E-02
        79    3.948535E-02
        80    3.071834E-03
        81   -3.033135E-02
        82    4.922564E-02
        83    3.092619E-03
        84   -3.121815E-01
        85   -4.012195E-03
        86    7.271069E-03
        87   -2.589883E-04
        88    2.037963E-04
        89   -5.256884E-06
        90   -1.958717E-03
        91    5.732310E-03
        92    3.520925E-04
        93    7.421219E-04
        94   -8.422286E-05
        95   -7.214731E-03
        96    1.840247E-02
        97    1.277843E-02
        98    2.784695E-02
        99   -4.823693E-02
       100   -4.321031E-02
       101   -2.876012E-01
       102    1.229625E-01
       103   -7.398794E-02
       104   -3.723429E-03
       105    7.409066E-02
       106   -3.586363E-02
       107   -1.592423E-03
       108    5.884948E-01
       109   -1.208184E-01
       110   -1.601530E-02
       111   -4.748785E-04
       112    2.493314E-04
       113   -9.980699E-06
       114   -3.631315E-03
       115    5.734733E-03
       116   -4.302780E-03
       117   -4.745956E-04
       118   -7.023253E-04
       119    2.388595E-02
       120    6.613610E-03
       121   -5.788916E-04
       122   -1.345367E-03
       123    6.350887E-03
       124   -2.430360E-02
       125    8.315267E-01
       126   -1.080734E-01
       127    9.415778E-04
       128    2.478399E-03
       129   -1.091889E-01
       130   -2.486183E-02
       131    1.662012E-03
       132   -3.155739E-03
       133   -4.221888E-01
       134   -1.345946E-02
       135    2.685130E-04
       136    9.561041E-04
       137   -6.618006E-04
       138    7.241950E-04
       139    2.779456E-02
       140   -3.775148E-04
       141    1.814863E-03
       142   -2.020069E-03
       143    1.816533E-02
       144    6.485611E-02
       145    1.552386E-03
       146    3.604722E-03
       147   -4.760840E-03
       148   -2.359902E-02
       149    1.561739E-01
       150    4.081907E-01
       151   -1.045849E-02
       152   -9.473160E-03
       153    3.389885E-01
       154   -1.301617E-02
       155   -8.006032E-03
       156    2.879762E-01
       157   -5.150491E-02
       158   -8.169402E-03
       159   -9.370121E-06
       160   -1.099392E-04
       161    5.172991E-05
       162    5.019838E-04
       163   -3.066287E-03
       164   -5.344178E-03
       165   -5.897433E-04
       166    4.439080E-04
       167    2.403577E-03
       168   -9.817116E-03
       169   -3.747099E-03
       170   -8.241608E-03
       171    1.339878E-02
       172    1.600978E-02
       173   -6.016150E-01
       174   -5.173461E-02
       175    1.595128E-02
       176    1.786410E-03
       177   -1.862125E-02
       178    2.285569E-02
       179    1.276324E-03
       180   -1.235029E-01
       181    3.266272E-01
       182    1.307629E-02
       183   -2.115859E-04
       184    3.012102E-04
       185   -7.828604E-05
       186   -4.361393E-03
       187    8.419306E-03
       188   -2.504282E-03
       189   -2.378800E-04
       190    2.892726E-04
       191   -4.417088E-03
       192   -3.636967E-03
       193    3.785191E-03
       194    8.315477E-03
       195   -1.380929E-02
       196   -3.107549E-02
       197    4.354486E-01
       198    4.826548E-02
       199   -3.674284E-02
       200   -2.711060E-03
       201    4.249177E-02
       202   -3.279968E-02
       203   -2.403700E-03
       204   -2.147411E-01
       205   -6.443980E-03
       206    4.230418E-03
       207    5.493415E-05
       208    1.275445E-04
       209    2.225545E-05
       210   -1.260723E-03
       211    2.745458E-03
       212    7.322588E-04
       213    1.850322E-04
       214    9.422763E-05
       215   -2.247906E-03
       216    2.504554E-03
       217   -1.342573E-03
       218   -2.880169E-03
       219    2.555961E-03
       220    2.225179E-02
       221   -2.552318E-01
       222   -1.020964E-02
       223    1.887030E-02
       224   -3.467837E-04
       225   -1.169721E-02
       226    9.979893E-03
       227   -4.363443E-04
       228    1.049682E-01
       229   -2.156801E-02
       230   -3.751456E-03
       231   -2.276475E-04
       232    1.427866E-04
       233    9.059405E-06
       234   -2.021687E-03
       235    2.733753E-03
       236   -1.859201E-03
       237   -6.080829E-05
       238   -3.345163E-05
       239    2.592043E-03
       240    2.165967E-03
       241    4.243579E-03
       242    9.294172E-03
       243   -1.648893E-02
       244   -8.363816E-03
       245    3.045284E-01
       246    3.824387E-02
       247   -3.044726E-02
       248   -2.289970E-03
       249    1.038384E-02
       250   -1.872589E-02
       251   -1.236561E-03
       252    4.125319E-02
       253    8.850226E-02
       254    1.611355E-03
       255   -1.593515E-05
       256    3.921744E-05
       257    5.245336E-05
       258   -2.718863E-03
       259    1.370963E-03
       260    8.133405E-04
       261   -3.642387E-04
       262   -7.964320E-05
       263    4.510179E-03
       264   -5.140690E-03
       265    1.139758E-02
       266    2.614603E-02
       267   -4.341612E-02
       268   -6.477516E-02
       269   -1.910941E-01
       270    1.101090E-01
       271   -6.647535E-02
       272   -5.402218E-03
       273    8.903483E-02
       274   -5.218713E-02
       275   -4.405024E-03
       276    1.000044E-01
       277   -2.851156E-02
       278   -3.695544E-03
       279   -1.503787E-03
       280   -7.576019E-06
       281    2.042061E-05
       282    4.723354E-04
       283    2.084817E-03
       284   -3.015188E-03
       285   -4.680522E-04
       286   -1.357136E-05
       287    8.670267E-03
       288   -4.802292E-03
       289   -3.976205E-03
       290   -8.848694E-03
       291    1.762228E-02
       292    1.260641E-02
       293   -4.242635E-03
       294   -4.517747E-02
       295   -4.196223E-03
       296    8.557246E-04
       297   -4.312968E-02
       298   -1.462178E-04
       299    9.582248E-04
       300    2.241971E-02
       301    1.859918E-02
       302    4.738277E-05
       303   -5.530341E-04
       304    2.818628E-04
       305    7.362002E-05
       306   -4.424961E-03
       307    4.634466E-03
       308    2.845990E-03
       309    5.153337E-04
       310   -4.113806E-05
       311   -6.885887E-03
       312    4.682439E-03
       313    3.091529E-03
       314    6.810211E-03
       315   -1.368266E-02
       316   -6.754786E-03
       317    2.754028E-02
       318    3.341721E-02
       319   -1.918494E-02
       320   -4.061403E-04
       321    1.694205E-02
       322   -5.927902E-03
       323    2.621433E-04
       324    1.644683E-02
       325   -5.132242E-02
       326   -1.343934E-03
       327    3.439000E-05
       328    5.704284E-05
       329   -8.626300E-05
       330    5.199572E-04
       331    2.240476E-03
       332   -1.723103E-03
       333   -1.681465E-04
       334   -3.701656E-05
       335    3.618421E-03
       336   -8.505431E-04
       337   -1.305425E-03
       338   -2.740155E-03
       339    2.164641E-03
       340    2.370909E-02
       341    8.436700E-03
       342   -1.426616E-02
       343   -2.445298E-04
       344    8.630880E-04
       345   -1.057720E-02
       346    8.247093E-04
       347    7.465784E-04
       348   -1.170626E-02
       349   -5.769288E-02
       350   -1.322108E-03
       351   -1.543294E-04
       352    1.161549E-04
       353    5.267307E-05
       354   -1.591565E-03
       355    2.457180E-03
       356   -1.057413E-03
       357    1.337463E-04
       358    2.154950E-04
       359   -3.550070E-03
       360    1.565803E-03
       361   -6.353534E-03
       362    3.712852E-03
       363    9.022876E-02
       364   -2.690985E-02
       365   -8.961755E-04
       366    5.494641E-04
       367   -1.437994E-02
       368   -2.739606E-02
       369   -1.351534E-01
       370    1.027773E-03
       371    6.734679E-04
       372   -4.810868E-05
       373    2.923586E-02
       374    5.156297E-02
       375    7.530685E-02
       376    2.571802E-03
       377    6.179491E-05
       378   -1.006464E-04
       379   -3.971476E-03
       380   -1.359805E-02
       381   -1.842333E-02
       382    1.244061E-03
       383   -1.153851E-03
       384   -6.342165E-05
       385    1.459895E-02
       386    3.126982E-02
       387    3.231264E-02
       388    1.372222E-03
       389    1.577945E-03
       390   -4.491890E-06
       391   -1.426329E-02
       392   -2.805146E-02
       393   -4.413596E-02
       394    1.138419E-03
       395   -8.782690E-04
       396   -1.097671E-04
       397   -1.066017E-02
       398   -1.922317E-02
       399   -2.796103E-02
       400    7.096456E-04
       401   -3.869986E-04
       402   -2.450564E-06
       403    1.294915E-02
       404    2.332289E-02
       405    1.062592E-02
       406   -1.046889E-03
       407   -1.172673E-03
       408   -1.261304E-05
       409    1.022055E-02
       410    1.716091E-02
       411    2.278185E-02
       412    1.865909E-04
       413   -1.121718E-03
       414    7.685956E-06
 Sym= X
 Ene= 0.999136
 Spin= Alpha
 Occup= 0.999136
         1    8.373331E-07
         2    1.285652E-06
         3    3.235165E-06
         4    3.438672E-06
         5    1.231180E-03
         6    1.980237E-03
         7   -2.929280E-03
         8    9.017116E-02
         9    1.850715E-03
        10   -2.533407E-03
        11    8.099277E-02