[Molden Format]
[Title]
 Molden file created by orca_2mkl for BaseName=HBQ-KETO_ESD

[Atoms] AU
C    1   6         -5.8130674439        -0.2878279279         0.1181110830 
C    2   6         -5.8313906698        -2.9086566180         0.0340625813 
C    3   6         -3.6085273631        -4.3110852211        -0.0582874590 
C    4   6         -1.2825587106        -3.0569822075        -0.0690824426 
C    5   6         -1.2198637285        -0.3651830283         0.0151045688 
C    6   6         -3.5283229480         1.1047730688         0.1129171630 
O    7   8         -3.4860126564         3.5450688208         0.1915003576 
C    8   6          1.1805615019         0.8327551555        -0.0002541796 
C    9   6          3.4791585277        -0.5455080445        -0.0941334668 
C   10   6          3.3369250386        -3.2449319351        -0.1770362731 
C   11   6          1.0619370618        -4.4247841880        -0.1641838088 
N   12   7          1.2932911865         3.3998170878         0.0786964243 
C   13   6          3.4565354641         4.6969435625         0.0733296623 
C   14   6          5.7438585712         3.4355877417        -0.0157066252 
C   15   6          5.7451127380         0.8119382168        -0.0992828845 
H   16   1         -0.5517847439         4.1892618824         0.1452794852 
H   17   1         -7.5694440680         0.7618806351         0.1906059395 
H   18   1         -7.6311835052        -3.8877561248         0.0416031954 
H   19   1         -3.6597114518        -6.3547868694        -0.1222265362 
H   20   1          0.9705391890        -6.4695220722        -0.2274325993 
H   21   1          5.0800318358        -4.3137781224        -0.2492434619 
H   22   1          7.5176909142        -0.2096999297        -0.1690104486 
H   23   1          3.3003279562         6.7332873743         0.1420015214 
H   24   1          7.4873497739         4.4991644822        -0.0186814592 
[GTO]
  1 0
s   6 1.0 
    13575.3496820000         0.5435905310
     2035.2333680000         1.0145543947
      463.2256235900         1.7315731970
      131.2001959800         2.6910376290
       42.8530158910         3.6044547126
       15.5841857660         3.7025556986
s   2 1.0 
        6.2067138508         1.8383540830
        2.5764896527         0.5447575605
s   1 1.0 
        0.5769633942         0.4718145038
s   1 1.0 
        0.2297283136         0.2364944676
s   1 1.0 
        0.0951644400         0.1221141848
p   4 1.0 
       34.6972322440         1.3596651507
        7.9582622826         1.4512589486
        2.3780826883         1.2709231419
        0.8143320818         0.8025721189
p   1 1.0 
        0.2888754725         0.3018758868
p   1 1.0 
        0.1005682367         0.0807265016
d   1 1.0 
        1.0970000000         3.3522135855
d   1 1.0 
        0.3180000000         0.3838994974

  2 0
s   6 1.0 
    13575.3496820000         0.5435905310
     2035.2333680000         1.0145543947
      463.2256235900         1.7315731970
      131.2001959800         2.6910376290
       42.8530158910         3.6044547126
       15.5841857660         3.7025556986
s   2 1.0 
        6.2067138508         1.8383540830
        2.5764896527         0.5447575605
s   1 1.0 
        0.5769633942         0.4718145038
s   1 1.0 
        0.2297283136         0.2364944676
s   1 1.0 
        0.0951644400         0.1221141848
p   4 1.0 
       34.6972322440         1.3596651507
        7.9582622826         1.4512589486
        2.3780826883         1.2709231419
        0.8143320818         0.8025721189
p   1 1.0 
        0.2888754725         0.3018758868
p   1 1.0 
        0.1005682367         0.0807265016
d   1 1.0 
        1.0970000000         3.3522135855
d   1 1.0 
        0.3180000000         0.3838994974

  3 0
s   6 1.0 
    13575.3496820000         0.5435905310
     2035.2333680000         1.0145543947
      463.2256235900         1.7315731970
      131.2001959800         2.6910376290
       42.8530158910         3.6044547126
       15.5841857660         3.7025556986
s   2 1.0 
        6.2067138508         1.8383540830
        2.5764896527         0.5447575605
s   1 1.0 
        0.5769633942         0.4718145038
s   1 1.0 
        0.2297283136         0.2364944676
s   1 1.0 
        0.0951644400         0.1221141848
p   4 1.0 
       34.6972322440         1.3596651507
        7.9582622826         1.4512589486
        2.3780826883         1.2709231419
        0.8143320818         0.8025721189
p   1 1.0 
        0.2888754725         0.3018758868
p   1 1.0 
        0.1005682367         0.0807265016
d   1 1.0 
        1.0970000000         3.3522135855
d   1 1.0 
        0.3180000000         0.3838994974

  4 0
s   6 1.0 
    13575.3496820000         0.5435905310
     2035.2333680000         1.0145543947
      463.2256235900         1.7315731970
      131.2001959800         2.6910376290
       42.8530158910         3.6044547126
       15.5841857660         3.7025556986
s   2 1.0 
        6.2067138508         1.8383540830
        2.5764896527         0.5447575605
s   1 1.0 
        0.5769633942         0.4718145038
s   1 1.0 
        0.2297283136         0.2364944676
s   1 1.0 
        0.0951644400         0.1221141848
p   4 1.0 
       34.6972322440         1.3596651507
        7.9582622826         1.4512589486
        2.3780826883         1.2709231419
        0.8143320818         0.8025721189
p   1 1.0 
        0.2888754725         0.3018758868
p   1 1.0 
        0.1005682367         0.0807265016
d   1 1.0 
        1.0970000000         3.3522135855
d   1 1.0 
        0.3180000000         0.3838994974

  5 0
s   6 1.0 
    13575.3496820000         0.5435905310
     2035.2333680000         1.0145543947
      463.2256235900         1.7315731970
      131.2001959800         2.6910376290
       42.8530158910         3.6044547126
       15.5841857660         3.7025556986
s   2 1.0 
        6.2067138508         1.8383540830
        2.5764896527         0.5447575605
s   1 1.0 
        0.5769633942         0.4718145038
s   1 1.0 
        0.2297283136         0.2364944676
s   1 1.0 
        0.0951644400         0.1221141848
p   4 1.0 
       34.6972322440         1.3596651507
        7.9582622826         1.4512589486
        2.3780826883         1.2709231419
        0.8143320818         0.8025721189
p   1 1.0 
        0.2888754725         0.3018758868
p   1 1.0 
        0.1005682367         0.0807265016
d   1 1.0 
        1.0970000000         3.3522135855
d   1 1.0 
        0.3180000000         0.3838994974

  6 0
s   6 1.0 
    13575.3496820000         0.5435905310
     2035.2333680000         1.0145543947
      463.2256235900         1.7315731970
      131.2001959800         2.6910376290
       42.8530158910         3.6044547126
       15.5841857660         3.7025556986
s   2 1.0 
        6.2067138508         1.8383540830
        2.5764896527         0.5447575605
s   1 1.0 
        0.5769633942         0.4718145038
s   1 1.0 
        0.2297283136         0.2364944676
s   1 1.0 
        0.0951644400         0.1221141848
p   4 1.0 
       34.6972322440         1.3596651507
        7.9582622826         1.4512589486
        2.3780826883         1.2709231419
        0.8143320818         0.8025721189
p   1 1.0 
        0.2888754725         0.3018758868
p   1 1.0 
        0.1005682367         0.0807265016
d   1 1.0 
        1.0970000000         3.3522135855
d   1 1.0 
        0.3180000000         0.3838994974

  7 0
s   6 1.0 
    27032.3826310000         0.8598581479
     4052.3871392000         1.6055305368
      922.3272271000         2.7458778516
      261.2407098900         4.2987674426
       85.3546413510         5.8797663284
       31.0350352450         6.3163983216
s   2 1.0 
       12.2608607280         2.9812147522
        4.9987076005         0.9419559635
s   1 1.0 
        1.1703108158         0.8019291610
s   1 1.0 
        0.4647474099         0.4011648062
s   1 1.0 
        0.1850453636         0.2010799406
p   4 1.0 
       63.2749548010         3.0572017144
       14.6270493790         3.3844839414
        4.4501223456         2.9474262132
        1.5275799647         1.7118271494
p   1 1.0 
        0.5293511794         0.6436057926
p   1 1.0 
        0.1747842127         0.1610897254
d   1 1.0 
        2.3140000000        12.3767310624
d   1 1.0 
        0.6450000000         1.3234257612

  8 0
s   6 1.0 
    13575.3496820000         0.5435905310
     2035.2333680000         1.0145543947
      463.2256235900         1.7315731970
      131.2001959800         2.6910376290
       42.8530158910         3.6044547126
       15.5841857660         3.7025556986
s   2 1.0 
        6.2067138508         1.8383540830
        2.5764896527         0.5447575605
s   1 1.0 
        0.5769633942         0.4718145038
s   1 1.0 
        0.2297283136         0.2364944676
s   1 1.0 
        0.0951644400         0.1221141848
p   4 1.0 
       34.6972322440         1.3596651507
        7.9582622826         1.4512589486
        2.3780826883         1.2709231419
        0.8143320818         0.8025721189
p   1 1.0 
        0.2888754725         0.3018758868
p   1 1.0 
        0.1005682367         0.0807265016
d   1 1.0 
        1.0970000000         3.3522135855
d   1 1.0 
        0.3180000000         0.3838994974

  9 0
s   6 1.0 
    13575.3496820000         0.5435905310
     2035.2333680000         1.0145543947
      463.2256235900         1.7315731970
      131.2001959800         2.6910376290
       42.8530158910         3.6044547126
       15.5841857660         3.7025556986
s   2 1.0 
        6.2067138508         1.8383540830
        2.5764896527         0.5447575605
s   1 1.0 
        0.5769633942         0.4718145038
s   1 1.0 
        0.2297283136         0.2364944676
s   1 1.0 
        0.0951644400         0.1221141848
p   4 1.0 
       34.6972322440         1.3596651507
        7.9582622826         1.4512589486
        2.3780826883         1.2709231419
        0.8143320818         0.8025721189
p   1 1.0 
        0.2888754725         0.3018758868
p   1 1.0 
        0.1005682367         0.0807265016
d   1 1.0 
        1.0970000000         3.3522135855
d   1 1.0 
        0.3180000000         0.3838994974

 10 0
s   6 1.0 
    13575.3496820000         0.5435905310
     2035.2333680000         1.0145543947
      463.2256235900         1.7315731970
      131.2001959800         2.6910376290
       42.8530158910         3.6044547126
       15.5841857660         3.7025556986
s   2 1.0 
        6.2067138508         1.8383540830
        2.5764896527         0.5447575605
s   1 1.0 
        0.5769633942         0.4718145038
s   1 1.0 
        0.2297283136         0.2364944676
s   1 1.0 
        0.0951644400         0.1221141848
p   4 1.0 
       34.6972322440         1.3596651507
        7.9582622826         1.4512589486
        2.3780826883         1.2709231419
        0.8143320818         0.8025721189
p   1 1.0 
        0.2888754725         0.3018758868
p   1 1.0 
        0.1005682367         0.0807265016
d   1 1.0 
        1.0970000000         3.3522135855
d   1 1.0 
        0.3180000000         0.3838994974

 11 0
s   6 1.0 
    13575.3496820000         0.5435905310
     2035.2333680000         1.0145543947
      463.2256235900         1.7315731970
      131.2001959800         2.6910376290
       42.8530158910         3.6044547126
       15.5841857660         3.7025556986
s   2 1.0 
        6.2067138508         1.8383540830
        2.5764896527         0.5447575605
s   1 1.0 
        0.5769633942         0.4718145038
s   1 1.0 
        0.2297283136         0.2364944676
s   1 1.0 
        0.0951644400         0.1221141848
p   4 1.0 
       34.6972322440         1.3596651507
        7.9582622826         1.4512589486
        2.3780826883         1.2709231419
        0.8143320818         0.8025721189
p   1 1.0 
        0.2888754725         0.3018758868
p   1 1.0 
        0.1005682367         0.0807265016
d   1 1.0 
        1.0970000000         3.3522135855
d   1 1.0 
        0.3180000000         0.3838994974

 12 0
s   6 1.0 
    19730.8006470000         0.6956035199
     2957.8958745000         1.2986099328
      673.2213359500         2.2190880635
      190.6824949400         3.4636607549
       62.2954418980         4.6967555531
       22.6541611820         4.9522510945
s   2 1.0 
        8.9791477428         2.3880677979
        3.6863002370         0.7337878750
s   1 1.0 
        0.8466007680         0.6290267082
s   1 1.0 
        0.3364713377         0.3148626514
s   1 1.0 
        0.1364765367         0.1600308040
p   4 1.0 
       49.2003805100         2.1264813968
       11.3467905370         2.3279367185
        3.4273972411         2.0485729192
        1.1785525134         1.2607319854
p   1 1.0 
        0.4164220497         0.4768230427
p   1 1.0 
        0.1426082601         0.1249168256
d   1 1.0 
        1.6540000000         6.8771297418
d   1 1.0 
        0.4690000000         0.7577440909

 13 0
s   6 1.0 
    13575.3496820000         0.5435905310
     2035.2333680000         1.0145543947
      463.2256235900         1.7315731970
      131.2001959800         2.6910376290
       42.8530158910         3.6044547126
       15.5841857660         3.7025556986
s   2 1.0 
        6.2067138508         1.8383540830
        2.5764896527         0.5447575605
s   1 1.0 
        0.5769633942         0.4718145038
s   1 1.0 
        0.2297283136         0.2364944676
s   1 1.0 
        0.0951644400         0.1221141848
p   4 1.0 
       34.6972322440         1.3596651507
        7.9582622826         1.4512589486
        2.3780826883         1.2709231419
        0.8143320818         0.8025721189
p   1 1.0 
        0.2888754725         0.3018758868
p   1 1.0 
        0.1005682367         0.0807265016
d   1 1.0 
        1.0970000000         3.3522135855
d   1 1.0 
        0.3180000000         0.3838994974

 14 0
s   6 1.0 
    13575.3496820000         0.5435905310
     2035.2333680000         1.0145543947
      463.2256235900         1.7315731970
      131.2001959800         2.6910376290
       42.8530158910         3.6044547126
       15.5841857660         3.7025556986
s   2 1.0 
        6.2067138508         1.8383540830
        2.5764896527         0.5447575605
s   1 1.0 
        0.5769633942         0.4718145038
s   1 1.0 
        0.2297283136         0.2364944676
s   1 1.0 
        0.0951644400         0.1221141848
p   4 1.0 
       34.6972322440         1.3596651507
        7.9582622826         1.4512589486
        2.3780826883         1.2709231419
        0.8143320818         0.8025721189
p   1 1.0 
        0.2888754725         0.3018758868
p   1 1.0 
        0.1005682367         0.0807265016
d   1 1.0 
        1.0970000000         3.3522135855
d   1 1.0 
        0.3180000000         0.3838994974

 15 0
s   6 1.0 
    13575.3496820000         0.5435905310
     2035.2333680000         1.0145543947
      463.2256235900         1.7315731970
      131.2001959800         2.6910376290
       42.8530158910         3.6044547126
       15.5841857660         3.7025556986
s   2 1.0 
        6.2067138508         1.8383540830
        2.5764896527         0.5447575605
s   1 1.0 
        0.5769633942         0.4718145038
s   1 1.0 
        0.2297283136         0.2364944676
s   1 1.0 
        0.0951644400         0.1221141848
p   4 1.0 
       34.6972322440         1.3596651507
        7.9582622826         1.4512589486
        2.3780826883         1.2709231419
        0.8143320818         0.8025721189
p   1 1.0 
        0.2888754725         0.3018758868
p   1 1.0 
        0.1005682367         0.0807265016
d   1 1.0 
        1.0970000000         3.3522135855
d   1 1.0 
        0.3180000000         0.3838994974

 16 0
s   3 1.0 
       34.0613410000         0.2556299169
        5.1235746000         0.4613599649
        1.1646626000         0.6811214941
s   1 1.0 
        0.3272304100         0.3083545312
s   1 1.0 
        0.1030724100         0.1296483265
p   1 1.0 
        0.8000000000         1.0784563492

 17 0
s   3 1.0 
       34.0613410000         0.2556299169
        5.1235746000         0.4613599649
        1.1646626000         0.6811214941
s   1 1.0 
        0.3272304100         0.3083545312
s   1 1.0 
        0.1030724100         0.1296483265
p   1 1.0 
        0.8000000000         1.0784563492

 18 0
s   3 1.0 
       34.0613410000         0.2556299169
        5.1235746000         0.4613599649
        1.1646626000         0.6811214941
s   1 1.0 
        0.3272304100         0.3083545312
s   1 1.0 
        0.1030724100         0.1296483265
p   1 1.0 
        0.8000000000         1.0784563492

 19 0
s   3 1.0 
       34.0613410000         0.2556299169
        5.1235746000         0.4613599649
        1.1646626000         0.6811214941
s   1 1.0 
        0.3272304100         0.3083545312
s   1 1.0 
        0.1030724100         0.1296483265
p   1 1.0 
        0.8000000000         1.0784563492

 20 0
s   3 1.0 
       34.0613410000         0.2556299169
        5.1235746000         0.4613599649
        1.1646626000         0.6811214941
s   1 1.0 
        0.3272304100         0.3083545312
s   1 1.0 
        0.1030724100         0.1296483265
p   1 1.0 
        0.8000000000         1.0784563492

 21 0
s   3 1.0 
       34.0613410000         0.2556299169
        5.1235746000         0.4613599649
        1.1646626000         0.6811214941
s   1 1.0 
        0.3272304100         0.3083545312
s   1 1.0 
        0.1030724100         0.1296483265
p   1 1.0 
        0.8000000000         1.0784563492

 22 0
s   3 1.0 
       34.0613410000         0.2556299169
        5.1235746000         0.4613599649
        1.1646626000         0.6811214941
s   1 1.0 
        0.3272304100         0.3083545312
s   1 1.0 
        0.1030724100         0.1296483265
p   1 1.0 
        0.8000000000         1.0784563492

 23 0
s   3 1.0 
       34.0613410000         0.2556299169
        5.1235746000         0.4613599649
        1.1646626000         0.6811214941
s   1 1.0 
        0.3272304100         0.3083545312
s   1 1.0 
        0.1030724100         0.1296483265
p   1 1.0 
        0.8000000000         1.0784563492

 24 0
s   3 1.0 
       34.0613410000         0.2556299169
        5.1235746000         0.4613599649
        1.1646626000         0.6811214941
s   1 1.0 
        0.3272304100         0.3083545312
s   1 1.0 
        0.1030724100         0.1296483265
p   1 1.0 
        0.8000000000         1.0784563492

[5D]
[7F]
[9G]
[MO]
 Sym= X
 Ene= -0.944925
 Spin= Alpha
 Occup= -0.944925
         1    9.652767E-05
         2    2.095728E-04
         3   -3.604682E-04
         4   -3.326266E-04
         5    4.033456E-03
         6   -3.449324E-03
         7    3.616751E-03
         8   -1.277895E-01
         9   -2.683184E-03
        10    3.331693E-03
        11   -1.104348E-01
        12    6.385861E-05
        13    1.828259E-03
        14   -7.807879E-02
        15    2.587070E-04
        16    6.177346E-05
        17    4.678107E-03
        18    1.230447E-04
        19    6.594014E-05
        20    2.484980E-04
        21    3.215133E-03
        22    7.299362E-03
        23    3.844467E-04
        24    9.044540E-05
        25   -4.310716E-05
        26   -9.484231E-05
        27    1.686861E-04
        28    3.223293E-04
        29   -3.311874E-03
        30   -2.796926E-03
        31    4.788018E-03
        32   -1.411543E-01
        33   -2.487735E-03
        34    4.121771E-03
        35   -1.209322E-01
        36   -3.200957E-03
        37    2.319453E-03
        38   -8.452862E-02
        39   -2.256207E-04
        40   -5.132029E-04
        41   -4.301456E-03
        42   -1.628642E-04
        43   -1.124444E-04
        44   -5.100403E-04
        45    4.688379E-03
        46   -6.050180E-03
        47   -1.176370E-04
        48   -3.094031E-04
        49   -4.864971E-06
        50   -1.008118E-05
        51    7.639167E-06
        52    1.435831E-04
        53    4.098453E-03
        54   -3.064734E-04
        55    1.390716E-04
        56   -4.693567E-03
        57   -2.209334E-04
        58    1.816101E-04
        59   -4.003519E-03
        60   -2.126597E-04
        61    1.653229E-03
        62   -8.838636E-03
        63   -2.875806E-04
        64    7.939365E-03
        65    2.081696E-04
        66    1.746023E-04
        67   -2.686980E-04
        68   -6.579509E-04
        69    1.717711E-02
        70   -2.804264E-04
        71    3.788272E-04
        72   -5.868298E-04
        73    3.484275E-05
        74    7.647623E-05
        75   -1.385637E-04
        76   -2.153949E-04
        77   -2.081671E-03
        78    3.553793E-03
        79   -5.087569E-03
        80    1.520722E-01
        81    3.075270E-03
        82   -4.474923E-03
        83    1.322167E-01
        84    4.363388E-03
        85   -3.125470E-03
        86    9.135103E-02
        87    4.846544E-04
        88   -1.436363E-03
        89    7.766567E-03
        90    2.299070E-04
        91    1.834061E-04
        92    1.113593E-03
        93   -1.485240E-03
        94    1.911548E-02
        95    5.882616E-04
        96    3.764870E-04
        97   -9.084062E-05
        98   -1.982632E-04
        99    3.493606E-04
       100    3.029635E-04
       101    1.767508E-03
       102    4.331908E-03
       103   -6.784592E-03
       104    2.290571E-01
       105    4.102103E-03
       106   -6.171655E-03
       107    2.037980E-01
       108   -1.127149E-03
       109   -4.130809E-03
       110    1.313902E-01
       111   -2.742384E-04
       112    1.803276E-03
       113   -3.757327E-03
       114   -5.624152E-05
       115   -1.741286E-04
       116   -4.196735E-04
       117    3.162732E-03
       118   -5.826621E-03
       119   -2.388693E-04
       120   -2.185053E-04
       121    1.225983E-05
       122    2.714056E-05
       123   -7.479802E-05
       124    1.674139E-04
       125   -5.842183E-03
       126    6.837371E-04
       127   -5.169477E-05
       128    1.145983E-03
       129    8.742814E-04
       130   -1.237581E-04
       131    8.170975E-03
       132    3.963850E-04
       133    3.039437E-03
       134   -1.184041E-03
       135   -6.478848E-04
       136    9.315903E-03
       137   -5.195781E-03
       138    3.797760E-05
       139   -5.915637E-04
       140   -1.161268E-03
       141    1.882641E-02
       142   -8.015119E-03
       143    7.597106E-05
       144   -1.187348E-03
       145   -9.741347E-06
       146   -2.235407E-05
       147    2.477435E-05
       148    1.766050E-04
       149   -1.034280E-03
       150   -4.531233E-03
       151    2.931076E-03
       152   -8.597159E-02
       153   -3.718887E-03
       154    2.390752E-03
       155   -6.946812E-02
       156   -3.377692E-03
       157    2.525905E-03
       158   -6.699460E-02
       159    2.802446E-05
       160    3.362285E-04
       161    7.005797E-04
       162    2.829386E-05
       163    2.352424E-05
       164    3.078439E-04
       165   -1.447670E-03
       166    3.822341E-03
       167    7.779840E-05
       168    2.007260E-04
       169    2.905787E-05
       170    6.342818E-05
       171   -9.637057E-05
       172   -1.858075E-04
       173    4.067468E-03
       174    1.399976E-03
       175   -1.724525E-03
       176    5.148333E-02
       177    1.246150E-03
       178   -1.720496E-03
       179    5.068130E-02
       180    7.464238E-04
       181   -2.936777E-03
       182    2.176801E-02
       183   -1.873753E-05
       184   -8.809440E-03
       185   -6.516101E-03
       186   -3.739492E-04
       187    8.448643E-05
       188    1.198729E-04
       189   -1.962480E-02
       190   -1.198006E-02
       191   -7.991709E-04
       192    3.678607E-04
       193   -2.213552E-05
       194   -4.855367E-05
       195    7.514096E-05
       196    2.273673E-04
       197   -2.082991E-03
       198   -1.956397E-03
       199    2.678493E-03
       200   -7.770852E-02
       201   -1.762429E-03
       202    2.387007E-03
       203   -7.013703E-02
       204    7.679142E-04
       205    1.188764E-03
       206   -2.967148E-02
       207    3.723140E-04
       208    1.168940E-04
       209    6.793409E-03
       210    2.268940E-04
       211    1.312299E-04
       212    9.061173E-04
       213    1.394512E-03
       214    1.747010E-02
       215    5.646368E-04
       216    3.316531E-04
       217    2.461184E-06
       218    4.757231E-06
       219    9.808255E-06
       220   -1.241215E-04
       221    1.335601E-03
       222   -3.924086E-03
       223    5.635903E-03
       224   -1.802887E-01
       225   -3.377558E-03
       226    4.869988E-03
       227   -1.560211E-01
       228   -3.000681E-03
       229    3.705866E-03
       230   -1.157025E-01
       231   -1.835842E-04
       232    3.077601E-03
       233   -1.203239E-03
       234    4.121275E-05
       235   -1.388699E-04
       236   -1.029338E-06
       237   -1.158543E-03
       238   -1.114622E-03
       239   -5.836336E-05
       240    2.533746E-06
       241   -2.288527E-05
       242   -5.108849E-05
       243    1.021530E-04
       244   -9.432174E-06
       245   -1.608625E-03
       246   -1.844883E-03
       247    2.511989E-03
       248   -7.347130E-02
       249   -1.477758E-03
       250    2.133840E-03
       251   -6.367573E-02
       252   -1.248314E-03
       253    1.086567E-03
       254   -4.579576E-02
       255    3.351321E-04
       256   -9.807921E-03
       257   -7.589220E-04
       258   -2.253273E-04
       259    2.874878E-04
       260    7.675555E-04
       261   -1.996294E-02
       262    2.070616E-04
       263   -4.448166E-04
       264    6.608550E-04
       265   -7.454862E-05
       266   -1.709065E-04
       267    2.823562E-04
       268    4.129569E-04
       269    1.338163E-03
       270   -3.463218E-03
       271    4.425633E-03
       272   -1.259664E-01
       273   -3.033484E-03
       274    3.903475E-03
       275   -1.121865E-01
       276   -2.763532E-03
       277    3.185046E-03
       278   -9.578907E-02
       279    8.420641E-07
       280   -1.062377E-03
       281   -8.997737E-04
       282   -5.524782E-05
       283    1.303930E-06
       284   -1.533316E-04
       285   -8.872614E-04
       286   -3.617494E-03
       287   -1.833118E-04
       288   -2.130659E-05
       289    2.660429E-05
       290    5.967132E-05
       291   -1.251916E-04
       292   -4.977596E-05
       293    2.037321E-05
       294    1.830746E-04
       295    2.194297E-04
       296   -6.205728E-03
       297    2.778902E-04
       298    7.136403E-06
       299   -6.293435E-04
       300   -3.960780E-04
       301    1.852963E-04
       302   -1.111179E-02
       303   -2.635362E-04
       304    8.073592E-03
       305    6.029358E-04
       306    2.215116E-04
       307   -2.773324E-04
       308   -5.271898E-04
       309    1.367103E-02
       310    2.252686E-05
       311    3.431288E-04
       312   -4.621684E-04
       313   -2.030599E-05
       314   -4.503015E-05
       315    9.564678E-05
       316    1.042472E-05
       317   -1.645898E-04
       318    2.100667E-03
       319   -3.399839E-03
       320    1.103021E-01
       321    1.954476E-03
       322   -3.093509E-03
       323    9.807281E-02
       324    1.632829E-03
       325   -2.370966E-03
       326    8.487295E-02
       327   -1.093288E-04
       328   -2.957707E-04
       329   -2.168596E-03
       330   -7.979279E-05
       331   -5.275307E-05
       332   -2.107284E-04
       333    8.672836E-05
       334   -3.997080E-03
       335   -1.453109E-04
       336   -7.142554E-05
       337    3.220594E-06
       338    6.317699E-06
       339    5.217160E-06
       340   -1.205435E-04
       341   -3.213759E-04
       342    1.343373E-03
       343   -1.871942E-03
       344    5.894944E-02
       345    1.175930E-03
       346   -1.654849E-03
       347    5.182036E-02
       348    6.673914E-04
       349   -2.993557E-04
       350    2.285429E-02
       351    2.683899E-04
       352    1.624152E-03
       353    5.931153E-03
       354    2.330948E-04
       355    5.741143E-05
       356    3.045055E-04
       357    7.112380E-03
       358    1.015577E-02
       359    4.897538E-04
       360   -8.559588E-06
       361    2.215316E-05
       362   -7.440700E-05
       363   -5.635564E-04
       364    9.135218E-06
       365    2.272014E-04
       366   -6.791412E-03
       367    9.950917E-05
       368    2.007242E-04
       369    9.260170E-04
       370   -1.460236E-04
       371    2.055333E-04
       372   -6.506798E-03
       373   -1.921758E-04
       374   -3.624727E-04
       375   -6.454711E-04
       376   -1.648514E-04
       377    2.160127E-04
       378   -6.823678E-03
       379    1.315208E-05
       380    8.123896E-05
       381    2.233556E-04
       382   -2.004806E-05
       383    2.779311E-05
       384   -6.259812E-04
       385   -8.326165E-05
       386   -1.651570E-04
       387   -1.447662E-04
       388   -9.143364E-05
       389    1.137401E-04
       390   -3.771658E-03
       391    7.075924E-05
       392    1.251970E-04
       393    1.589730E-04
       394   -1.955989E-04
       395    2.785192E-04
       396   -8.677168E-03
       397    7.832980E-05
       398    1.409256E-04
       399    1.765758E-04
       400    4.482695E-05
       401   -7.167981E-05
       402    2.396894E-03
       403   -8.844668E-05
       404   -1.488990E-04
       405   -3.885277E-05
       406    5.062488E-06
       407    9.308644E-06
       408   -5.668470E-05
       409   -7.658879E-05
       410   -1.229333E-04
       411   -1.279042E-04
       412    1.236734E-04
       413   -1.793855E-04
       414    5.858055E-03
 Sym= X
 Ene= 0.944925
 Spin= Alpha
 Occup= 0.944925
         1    6.859505E-06
         2    1.511660E-05
         3   -1.283295E-05
         4   -3.373808E-04
         5    3.451843E-04
         6   -1.764984E-03
         7    2.591409E-03
         8   -8.036933E-02
         9   -1.609453E-03
        10    2.503124E-03
        11   -7.596918E-02