[Molden Format]
[Title]
 Molden file created by orca_2mkl for BaseName=HBQ-KETO_ESD

[Atoms] AU
C    1   6         -5.8130674439        -0.2878279279         0.1181110830 
C    2   6         -5.8313906698        -2.9086566180         0.0340625813 
C    3   6         -3.6085273631        -4.3110852211        -0.0582874590 
C    4   6         -1.2825587106        -3.0569822075        -0.0690824426 
C    5   6         -1.2198637285        -0.3651830283         0.0151045688 
C    6   6         -3.5283229480         1.1047730688         0.1129171630 
O    7   8         -3.4860126564         3.5450688208         0.1915003576 
C    8   6          1.1805615019         0.8327551555        -0.0002541796 
C    9   6          3.4791585277        -0.5455080445        -0.0941334668 
C   10   6          3.3369250386        -3.2449319351        -0.1770362731 
C   11   6          1.0619370618        -4.4247841880        -0.1641838088 
N   12   7          1.2932911865         3.3998170878         0.0786964243 
C   13   6          3.4565354641         4.6969435625         0.0733296623 
C   14   6          5.7438585712         3.4355877417        -0.0157066252 
C   15   6          5.7451127380         0.8119382168        -0.0992828845 
H   16   1         -0.5517847439         4.1892618824         0.1452794852 
H   17   1         -7.5694440680         0.7618806351         0.1906059395 
H   18   1         -7.6311835052        -3.8877561248         0.0416031954 
H   19   1         -3.6597114518        -6.3547868694        -0.1222265362 
H   20   1          0.9705391890        -6.4695220722        -0.2274325993 
H   21   1          5.0800318358        -4.3137781224        -0.2492434619 
H   22   1          7.5176909142        -0.2096999297        -0.1690104486 
H   23   1          3.3003279562         6.7332873743         0.1420015214 
H   24   1          7.4873497739         4.4991644822        -0.0186814592 
[GTO]
  1 0
s   6 1.0 
    13575.3496820000         0.5435905310
     2035.2333680000         1.0145543947
      463.2256235900         1.7315731970
      131.2001959800         2.6910376290
       42.8530158910         3.6044547126
       15.5841857660         3.7025556986
s   2 1.0 
        6.2067138508         1.8383540830
        2.5764896527         0.5447575605
s   1 1.0 
        0.5769633942         0.4718145038
s   1 1.0 
        0.2297283136         0.2364944676
s   1 1.0 
        0.0951644400         0.1221141848
p   4 1.0 
       34.6972322440         1.3596651507
        7.9582622826         1.4512589486
        2.3780826883         1.2709231419
        0.8143320818         0.8025721189
p   1 1.0 
        0.2888754725         0.3018758868
p   1 1.0 
        0.1005682367         0.0807265016
d   1 1.0 
        1.0970000000         3.3522135855
d   1 1.0 
        0.3180000000         0.3838994974

  2 0
s   6 1.0 
    13575.3496820000         0.5435905310
     2035.2333680000         1.0145543947
      463.2256235900         1.7315731970
      131.2001959800         2.6910376290
       42.8530158910         3.6044547126
       15.5841857660         3.7025556986
s   2 1.0 
        6.2067138508         1.8383540830
        2.5764896527         0.5447575605
s   1 1.0 
        0.5769633942         0.4718145038
s   1 1.0 
        0.2297283136         0.2364944676
s   1 1.0 
        0.0951644400         0.1221141848
p   4 1.0 
       34.6972322440         1.3596651507
        7.9582622826         1.4512589486
        2.3780826883         1.2709231419
        0.8143320818         0.8025721189
p   1 1.0 
        0.2888754725         0.3018758868
p   1 1.0 
        0.1005682367         0.0807265016
d   1 1.0 
        1.0970000000         3.3522135855
d   1 1.0 
        0.3180000000         0.3838994974

  3 0
s   6 1.0 
    13575.3496820000         0.5435905310
     2035.2333680000         1.0145543947
      463.2256235900         1.7315731970
      131.2001959800         2.6910376290
       42.8530158910         3.6044547126
       15.5841857660         3.7025556986
s   2 1.0 
        6.2067138508         1.8383540830
        2.5764896527         0.5447575605
s   1 1.0 
        0.5769633942         0.4718145038
s   1 1.0 
        0.2297283136         0.2364944676
s   1 1.0 
        0.0951644400         0.1221141848
p   4 1.0 
       34.6972322440         1.3596651507
        7.9582622826         1.4512589486
        2.3780826883         1.2709231419
        0.8143320818         0.8025721189
p   1 1.0 
        0.2888754725         0.3018758868
p   1 1.0 
        0.1005682367         0.0807265016
d   1 1.0 
        1.0970000000         3.3522135855
d   1 1.0 
        0.3180000000         0.3838994974

  4 0
s   6 1.0 
    13575.3496820000         0.5435905310
     2035.2333680000         1.0145543947
      463.2256235900         1.7315731970
      131.2001959800         2.6910376290
       42.8530158910         3.6044547126
       15.5841857660         3.7025556986
s   2 1.0 
        6.2067138508         1.8383540830
        2.5764896527         0.5447575605
s   1 1.0 
        0.5769633942         0.4718145038
s   1 1.0 
        0.2297283136         0.2364944676
s   1 1.0 
        0.0951644400         0.1221141848
p   4 1.0 
       34.6972322440         1.3596651507
        7.9582622826         1.4512589486
        2.3780826883         1.2709231419
        0.8143320818         0.8025721189
p   1 1.0 
        0.2888754725         0.3018758868
p   1 1.0 
        0.1005682367         0.0807265016
d   1 1.0 
        1.0970000000         3.3522135855
d   1 1.0 
        0.3180000000         0.3838994974

  5 0
s   6 1.0 
    13575.3496820000         0.5435905310
     2035.2333680000         1.0145543947
      463.2256235900         1.7315731970
      131.2001959800         2.6910376290
       42.8530158910         3.6044547126
       15.5841857660         3.7025556986
s   2 1.0 
        6.2067138508         1.8383540830
        2.5764896527         0.5447575605
s   1 1.0 
        0.5769633942         0.4718145038
s   1 1.0 
        0.2297283136         0.2364944676
s   1 1.0 
        0.0951644400         0.1221141848
p   4 1.0 
       34.6972322440         1.3596651507
        7.9582622826         1.4512589486
        2.3780826883         1.2709231419
        0.8143320818         0.8025721189
p   1 1.0 
        0.2888754725         0.3018758868
p   1 1.0 
        0.1005682367         0.0807265016
d   1 1.0 
        1.0970000000         3.3522135855
d   1 1.0 
        0.3180000000         0.3838994974

  6 0
s   6 1.0 
    13575.3496820000         0.5435905310
     2035.2333680000         1.0145543947
      463.2256235900         1.7315731970
      131.2001959800         2.6910376290
       42.8530158910         3.6044547126
       15.5841857660         3.7025556986
s   2 1.0 
        6.2067138508         1.8383540830
        2.5764896527         0.5447575605
s   1 1.0 
        0.5769633942         0.4718145038
s   1 1.0 
        0.2297283136         0.2364944676
s   1 1.0 
        0.0951644400         0.1221141848
p   4 1.0 
       34.6972322440         1.3596651507
        7.9582622826         1.4512589486
        2.3780826883         1.2709231419
        0.8143320818         0.8025721189
p   1 1.0 
        0.2888754725         0.3018758868
p   1 1.0 
        0.1005682367         0.0807265016
d   1 1.0 
        1.0970000000         3.3522135855
d   1 1.0 
        0.3180000000         0.3838994974

  7 0
s   6 1.0 
    27032.3826310000         0.8598581479
     4052.3871392000         1.6055305368
      922.3272271000         2.7458778516
      261.2407098900         4.2987674426
       85.3546413510         5.8797663284
       31.0350352450         6.3163983216
s   2 1.0 
       12.2608607280         2.9812147522
        4.9987076005         0.9419559635
s   1 1.0 
        1.1703108158         0.8019291610
s   1 1.0 
        0.4647474099         0.4011648062
s   1 1.0 
        0.1850453636         0.2010799406
p   4 1.0 
       63.2749548010         3.0572017144
       14.6270493790         3.3844839414
        4.4501223456         2.9474262132
        1.5275799647         1.7118271494
p   1 1.0 
        0.5293511794         0.6436057926
p   1 1.0 
        0.1747842127         0.1610897254
d   1 1.0 
        2.3140000000        12.3767310624
d   1 1.0 
        0.6450000000         1.3234257612

  8 0
s   6 1.0 
    13575.3496820000         0.5435905310
     2035.2333680000         1.0145543947
      463.2256235900         1.7315731970
      131.2001959800         2.6910376290
       42.8530158910         3.6044547126
       15.5841857660         3.7025556986
s   2 1.0 
        6.2067138508         1.8383540830
        2.5764896527         0.5447575605
s   1 1.0 
        0.5769633942         0.4718145038
s   1 1.0 
        0.2297283136         0.2364944676
s   1 1.0 
        0.0951644400         0.1221141848
p   4 1.0 
       34.6972322440         1.3596651507
        7.9582622826         1.4512589486
        2.3780826883         1.2709231419
        0.8143320818         0.8025721189
p   1 1.0 
        0.2888754725         0.3018758868
p   1 1.0 
        0.1005682367         0.0807265016
d   1 1.0 
        1.0970000000         3.3522135855
d   1 1.0 
        0.3180000000         0.3838994974

  9 0
s   6 1.0 
    13575.3496820000         0.5435905310
     2035.2333680000         1.0145543947
      463.2256235900         1.7315731970
      131.2001959800         2.6910376290
       42.8530158910         3.6044547126
       15.5841857660         3.7025556986
s   2 1.0 
        6.2067138508         1.8383540830
        2.5764896527         0.5447575605
s   1 1.0 
        0.5769633942         0.4718145038
s   1 1.0 
        0.2297283136         0.2364944676
s   1 1.0 
        0.0951644400         0.1221141848
p   4 1.0 
       34.6972322440         1.3596651507
        7.9582622826         1.4512589486
        2.3780826883         1.2709231419
        0.8143320818         0.8025721189
p   1 1.0 
        0.2888754725         0.3018758868
p   1 1.0 
        0.1005682367         0.0807265016
d   1 1.0 
        1.0970000000         3.3522135855
d   1 1.0 
        0.3180000000         0.3838994974

 10 0
s   6 1.0 
    13575.3496820000         0.5435905310
     2035.2333680000         1.0145543947
      463.2256235900         1.7315731970
      131.2001959800         2.6910376290
       42.8530158910         3.6044547126
       15.5841857660         3.7025556986
s   2 1.0 
        6.2067138508         1.8383540830
        2.5764896527         0.5447575605
s   1 1.0 
        0.5769633942         0.4718145038
s   1 1.0 
        0.2297283136         0.2364944676
s   1 1.0 
        0.0951644400         0.1221141848
p   4 1.0 
       34.6972322440         1.3596651507
        7.9582622826         1.4512589486
        2.3780826883         1.2709231419
        0.8143320818         0.8025721189
p   1 1.0 
        0.2888754725         0.3018758868
p   1 1.0 
        0.1005682367         0.0807265016
d   1 1.0 
        1.0970000000         3.3522135855
d   1 1.0 
        0.3180000000         0.3838994974

 11 0
s   6 1.0 
    13575.3496820000         0.5435905310
     2035.2333680000         1.0145543947
      463.2256235900         1.7315731970
      131.2001959800         2.6910376290
       42.8530158910         3.6044547126
       15.5841857660         3.7025556986
s   2 1.0 
        6.2067138508         1.8383540830
        2.5764896527         0.5447575605
s   1 1.0 
        0.5769633942         0.4718145038
s   1 1.0 
        0.2297283136         0.2364944676
s   1 1.0 
        0.0951644400         0.1221141848
p   4 1.0 
       34.6972322440         1.3596651507
        7.9582622826         1.4512589486
        2.3780826883         1.2709231419
        0.8143320818         0.8025721189
p   1 1.0 
        0.2888754725         0.3018758868
p   1 1.0 
        0.1005682367         0.0807265016
d   1 1.0 
        1.0970000000         3.3522135855
d   1 1.0 
        0.3180000000         0.3838994974

 12 0
s   6 1.0 
    19730.8006470000         0.6956035199
     2957.8958745000         1.2986099328
      673.2213359500         2.2190880635
      190.6824949400         3.4636607549
       62.2954418980         4.6967555531
       22.6541611820         4.9522510945
s   2 1.0 
        8.9791477428         2.3880677979
        3.6863002370         0.7337878750
s   1 1.0 
        0.8466007680         0.6290267082
s   1 1.0 
        0.3364713377         0.3148626514
s   1 1.0 
        0.1364765367         0.1600308040
p   4 1.0 
       49.2003805100         2.1264813968
       11.3467905370         2.3279367185
        3.4273972411         2.0485729192
        1.1785525134         1.2607319854
p   1 1.0 
        0.4164220497         0.4768230427
p   1 1.0 
        0.1426082601         0.1249168256
d   1 1.0 
        1.6540000000         6.8771297418
d   1 1.0 
        0.4690000000         0.7577440909

 13 0
s   6 1.0 
    13575.3496820000         0.5435905310
     2035.2333680000         1.0145543947
      463.2256235900         1.7315731970
      131.2001959800         2.6910376290
       42.8530158910         3.6044547126
       15.5841857660         3.7025556986
s   2 1.0 
        6.2067138508         1.8383540830
        2.5764896527         0.5447575605
s   1 1.0 
        0.5769633942         0.4718145038
s   1 1.0 
        0.2297283136         0.2364944676
s   1 1.0 
        0.0951644400         0.1221141848
p   4 1.0 
       34.6972322440         1.3596651507
        7.9582622826         1.4512589486
        2.3780826883         1.2709231419
        0.8143320818         0.8025721189
p   1 1.0 
        0.2888754725         0.3018758868
p   1 1.0 
        0.1005682367         0.0807265016
d   1 1.0 
        1.0970000000         3.3522135855
d   1 1.0 
        0.3180000000         0.3838994974

 14 0
s   6 1.0 
    13575.3496820000         0.5435905310
     2035.2333680000         1.0145543947
      463.2256235900         1.7315731970
      131.2001959800         2.6910376290
       42.8530158910         3.6044547126
       15.5841857660         3.7025556986
s   2 1.0 
        6.2067138508         1.8383540830
        2.5764896527         0.5447575605
s   1 1.0 
        0.5769633942         0.4718145038
s   1 1.0 
        0.2297283136         0.2364944676
s   1 1.0 
        0.0951644400         0.1221141848
p   4 1.0 
       34.6972322440         1.3596651507
        7.9582622826         1.4512589486
        2.3780826883         1.2709231419
        0.8143320818         0.8025721189
p   1 1.0 
        0.2888754725         0.3018758868
p   1 1.0 
        0.1005682367         0.0807265016
d   1 1.0 
        1.0970000000         3.3522135855
d   1 1.0 
        0.3180000000         0.3838994974

 15 0
s   6 1.0 
    13575.3496820000         0.5435905310
     2035.2333680000         1.0145543947
      463.2256235900         1.7315731970
      131.2001959800         2.6910376290
       42.8530158910         3.6044547126
       15.5841857660         3.7025556986
s   2 1.0 
        6.2067138508         1.8383540830
        2.5764896527         0.5447575605
s   1 1.0 
        0.5769633942         0.4718145038
s   1 1.0 
        0.2297283136         0.2364944676
s   1 1.0 
        0.0951644400         0.1221141848
p   4 1.0 
       34.6972322440         1.3596651507
        7.9582622826         1.4512589486
        2.3780826883         1.2709231419
        0.8143320818         0.8025721189
p   1 1.0 
        0.2888754725         0.3018758868
p   1 1.0 
        0.1005682367         0.0807265016
d   1 1.0 
        1.0970000000         3.3522135855
d   1 1.0 
        0.3180000000         0.3838994974

 16 0
s   3 1.0 
       34.0613410000         0.2556299169
        5.1235746000         0.4613599649
        1.1646626000         0.6811214941
s   1 1.0 
        0.3272304100         0.3083545312
s   1 1.0 
        0.1030724100         0.1296483265
p   1 1.0 
        0.8000000000         1.0784563492

 17 0
s   3 1.0 
       34.0613410000         0.2556299169
        5.1235746000         0.4613599649
        1.1646626000         0.6811214941
s   1 1.0 
        0.3272304100         0.3083545312
s   1 1.0 
        0.1030724100         0.1296483265
p   1 1.0 
        0.8000000000         1.0784563492

 18 0
s   3 1.0 
       34.0613410000         0.2556299169
        5.1235746000         0.4613599649
        1.1646626000         0.6811214941
s   1 1.0 
        0.3272304100         0.3083545312
s   1 1.0 
        0.1030724100         0.1296483265
p   1 1.0 
        0.8000000000         1.0784563492

 19 0
s   3 1.0 
       34.0613410000         0.2556299169
        5.1235746000         0.4613599649
        1.1646626000         0.6811214941
s   1 1.0 
        0.3272304100         0.3083545312
s   1 1.0 
        0.1030724100         0.1296483265
p   1 1.0 
        0.8000000000         1.0784563492

 20 0
s   3 1.0 
       34.0613410000         0.2556299169
        5.1235746000         0.4613599649
        1.1646626000         0.6811214941
s   1 1.0 
        0.3272304100         0.3083545312
s   1 1.0 
        0.1030724100         0.1296483265
p   1 1.0 
        0.8000000000         1.0784563492

 21 0
s   3 1.0 
       34.0613410000         0.2556299169
        5.1235746000         0.4613599649
        1.1646626000         0.6811214941
s   1 1.0 
        0.3272304100         0.3083545312
s   1 1.0 
        0.1030724100         0.1296483265
p   1 1.0 
        0.8000000000         1.0784563492

 22 0
s   3 1.0 
       34.0613410000         0.2556299169
        5.1235746000         0.4613599649
        1.1646626000         0.6811214941
s   1 1.0 
        0.3272304100         0.3083545312
s   1 1.0 
        0.1030724100         0.1296483265
p   1 1.0 
        0.8000000000         1.0784563492

 23 0
s   3 1.0 
       34.0613410000         0.2556299169
        5.1235746000         0.4613599649
        1.1646626000         0.6811214941
s   1 1.0 
        0.3272304100         0.3083545312
s   1 1.0 
        0.1030724100         0.1296483265
p   1 1.0 
        0.8000000000         1.0784563492

 24 0
s   3 1.0 
       34.0613410000         0.2556299169
        5.1235746000         0.4613599649
        1.1646626000         0.6811214941
s   1 1.0 
        0.3272304100         0.3083545312
s   1 1.0 
        0.1030724100         0.1296483265
p   1 1.0 
        0.8000000000         1.0784563492

[5D]
[7F]
[9G]
[MO]
 Sym= X
 Ene= -0.953212
 Spin= Alpha
 Occup= -0.953212
         1    7.832335E-06
         2    1.729452E-05
         3   -3.294380E-05
         4   -2.602067E-05
         5   -8.867869E-04
         6   -4.112256E-03
         7    6.007286E-03
         8   -1.858431E-01
         9   -3.596776E-03
        10    5.322012E-03
        11   -1.643039E-01
        12   -3.788587E-03
        13    5.246311E-03
        14   -1.617095E-01
        15    2.688845E-05
        16   -3.887842E-03
        17   -2.203404E-03
        18   -1.572945E-04
        19    7.596796E-05
        20   -1.310450E-04
        21   -6.510226E-03
        22   -6.663998E-03
        23   -3.524542E-04
        24    7.905783E-05
        25    1.866057E-06
        26    4.050565E-06
        27   -1.162099E-07
        28   -1.032552E-04
        29    1.155590E-03
        30    8.437834E-04
        31   -1.245419E-03
        32    3.843516E-02
        33    7.505497E-04
        34   -1.127191E-03
        35    3.487290E-02
        36    1.032006E-03
        37   -5.913676E-04
        38    2.407628E-02
        39   -8.552891E-04
        40    6.617399E-03
        41   -1.098493E-02
        42   -2.080413E-04
        43   -4.539337E-04
        44   -1.597908E-03
        45    9.684916E-03
        46   -2.215818E-02
        47   -5.050317E-04
        48   -7.796837E-04
        49   -6.571944E-06
        50   -1.375764E-05
        51    2.160736E-05
        52   -4.381558E-05
        53   -1.613731E-03
        54    4.612558E-03
        55   -6.838788E-03
        56    2.158900E-01
        57    3.951971E-03
        58   -6.029483E-03
        59    1.890437E-01
        60    3.851514E-03
        61   -6.449232E-03
        62    1.800219E-01
        63    1.151457E-04
        64    4.900707E-04
        65    2.431424E-03
        66    8.948311E-05
        67    3.586490E-05
        68   -2.006407E-04
        69    1.194437E-03
        70   -2.855742E-03
        71   -8.378357E-05
        72   -1.344806E-04
        73   -4.820729E-06
        74   -9.277520E-06
        75   -5.715843E-06
        76    1.017820E-04
        77    8.119021E-05
        78    1.348691E-03
        79   -1.881929E-03
        80    6.045632E-02
        81    1.186868E-03
        82   -1.842528E-03
        83    5.581213E-02
        84   -9.939207E-04
        85   -4.468396E-04
        86    2.562158E-02
        87   -4.176249E-05
        88   -8.720300E-03
        89   -6.756307E-03
        90   -4.070194E-04
        91    1.249077E-04
        92   -1.869473E-04
        93   -1.787420E-02
        94   -1.559337E-02
        95   -8.123476E-04
        96    2.762021E-04
        97    8.521824E-06
        98    1.858097E-05
        99   -2.898905E-05
       100   -5.091030E-05
       101    2.952270E-03
       102   -2.701693E-03
       103    3.822352E-03
       104   -1.214463E-01
       105   -2.453232E-03
       106    3.377104E-03
       107   -1.098896E-01
       108    1.859759E-05
       109    4.383055E-03
       110   -1.086395E-01
       111   -2.678521E-04
       112    3.318201E-03
       113   -2.579815E-03
       114   -1.316425E-05
       115   -1.673064E-04
       116   -7.638000E-04
       117    9.411863E-03
       118   -7.330000E-03
       119   -1.093708E-04
       120   -4.096954E-04
       121   -1.454976E-06
       122   -2.208516E-06
       123   -9.493121E-06
       124    1.270372E-04
       125    1.029962E-03
       126   -2.481276E-03
       127    3.708644E-03
       128   -1.138304E-01
       129   -2.524002E-03
       130    3.817433E-03
       131   -1.188227E-01
       132   -7.854560E-04
       133    4.440657E-04
       134   -2.611867E-02
       135    7.987468E-04
       136    2.415346E-03
       137    1.582124E-02
       138    5.639021E-04
       139    2.691718E-04
       140    1.267833E-03
       141    5.504336E-03
       142    2.627110E-02
       143    9.459958E-04
       144    3.498511E-04
       145   -2.962090E-06
       146   -7.205296E-06
       147    1.358048E-05
       148    6.917544E-06
       149    5.128820E-05
       150    5.118619E-03
       151   -7.601847E-03
       152    2.324823E-01
       153    4.163940E-03
       154   -6.200415E-03
       155    1.892838E-01
       156    4.401669E-03
       157   -6.403813E-03
       158    1.979034E-01
       159   -3.862915E-05
       160    1.583560E-04
       161   -5.629762E-04
       162   -1.573670E-05
       163   -1.724590E-05
       164   -4.520842E-04
       165    4.041775E-03
       166   -5.224434E-03
       167   -8.086812E-05
       168   -2.533090E-04
       169    6.585876E-06
       170    1.460944E-05
       171   -3.169243E-05
       172   -1.336386E-05
       173   -3.293492E-03
       174    7.716526E-04
       175   -1.055612E-03
       176    3.380417E-02
       177    4.732268E-04
       178   -7.440116E-04
       179    2.388312E-02
       180    2.758409E-03
       181    8.134897E-04
       182    3.262518E-02
       183   -8.360635E-05
       184    6.653185E-03
       185    3.103588E-03
       186    2.449023E-04
       187   -1.475110E-04
       188   -1.158587E-04
       189    1.124622E-02
       190    5.754871E-03
       191    3.457714E-04
       192   -1.949536E-04
       193   -3.001767E-06
       194   -7.723581E-06
       195    3.775599E-05
       196   -9.296714E-05
       197    6.609318E-04
       198    1.713769E-03
       199   -2.551677E-03
       200    8.010793E-02
       201    1.459083E-03
       202   -2.353812E-03
       203    7.383968E-02
       204    1.022890E-04
       205   -3.438750E-03
       206    5.218279E-02
       207    1.983741E-04
       208    1.742356E-03
       209    4.771257E-03
       210    1.893398E-04
       211    5.046318E-05
       212    5.164952E-04
       213    2.287289E-03
       214    1.065102E-02
       215    3.370565E-04
       216    6.364290E-05
       217   -1.207625E-06
       218   -2.693124E-06
       219    1.901093E-06
       220   -4.800540E-05
       221   -2.350712E-03
       222   -1.694085E-03
       223    2.489622E-03
       224   -7.784075E-02
       225   -1.503889E-03
       226    2.193925E-03
       227   -6.888647E-02
       228   -9.814855E-04
       229    1.395287E-03
       230   -6.786248E-02
       231    7.809227E-05
       232    3.313028E-03
       233    3.703069E-03
       234    1.891574E-04
       235   -2.576403E-05
       236    1.804933E-04
       237    7.112426E-03
       238    8.333341E-03
       239    4.454427E-04
       240   -1.022540E-04
       241    1.526673E-06
       242    3.536081E-06
       243   -5.492254E-06
       244    2.046030E-05
       245    1.982183E-03
       246   -1.765620E-03
       247    2.485455E-03
       248   -7.855671E-02
       249   -1.558180E-03
       250    2.208289E-03
       251   -7.026388E-02
       252   -1.239967E-03
       253    2.137931E-03
       254   -4.436939E-02
       255    1.026695E-04
       256   -4.984617E-03
       257   -1.596583E-03
       258   -1.643821E-04
       259    1.211903E-04
       260    3.629171E-04
       261   -9.139834E-03
       262    1.483566E-04
       263   -1.468828E-04
       264    2.969146E-04
       265   -5.881596E-06
       266   -1.320118E-05
       267    1.863746E-05
       268    4.540096E-05
       269   -5.900785E-04
       270    1.067286E-03
       271   -1.621251E-03
       272    5.120474E-02
       273    8.794565E-04
       274   -1.306229E-03
       275    4.215037E-02
       276    1.266878E-03
       277   -1.911329E-03
       278    6.569132E-02
       279   -4.544070E-05
       280   -1.576147E-03
       281   -1.914613E-03
       282   -9.646847E-05
       283    7.999344E-06
       284   -1.116682E-04
       285   -5.483780E-03
       286   -5.911627E-03
       287   -3.009996E-04
       288    5.142725E-05
       289    7.173827E-07
       290    1.896923E-06
       291   -8.954151E-06
       292    7.030715E-05
       293   -4.307120E-05
       294   -1.993007E-03
       295    2.994943E-03
       296   -9.334078E-02
       297   -1.904854E-03
       298    2.863194E-03
       299   -8.964285E-02
       300   -1.499857E-03
       301    2.353857E-03
       302   -6.835243E-02
       303    1.785544E-04
       304   -4.362759E-03
       305    2.856204E-04
       306   -8.350335E-05
       307    1.439529E-04
       308    1.474180E-04
       309   -5.104079E-03
       310   -7.494478E-04
       311   -1.318924E-04
       312    1.444463E-04
       313   -1.512967E-06
       314   -3.325085E-06
       315    5.370327E-06
       316    4.773239E-05
       317   -1.698954E-04
       318   -1.483416E-03
       319    2.226829E-03
       320   -6.992885E-02
       321   -1.314513E-03
       322    1.940939E-03
       323   -6.126190E-02
       324   -1.048070E-03
       325    1.916078E-03
       326   -5.677936E-02
       327   -3.433346E-04
       328    3.106575E-03
       329   -4.115209E-03
       330   -6.629639E-05
       331   -1.865880E-04
       332   -6.575259E-04
       333    4.062611E-03
       334   -9.307977E-03
       335   -2.142980E-04
       336   -3.185258E-04
       337    9.745257E-07
       338    2.449367E-06
       339   -2.253320E-05
       340    2.389819E-04
       341    1.317510E-03
       342    1.414888E-03
       343   -2.123864E-03
       344    6.700381E-02
       345    1.144024E-03
       346   -1.976182E-03
       347    6.011420E-02
       348    8.217497E-04
       349   -1.886629E-03
       350    5.862457E-02
       351   -9.019900E-05
       352   -2.862191E-03
       353   -3.515869E-03
       354   -1.726653E-04
       355    1.685348E-05
       356   -3.050328E-04
       357   -4.700961E-03
       358   -8.621396E-03
       359   -3.605389E-04
       360    1.768224E-05
       361    7.975290E-07
       362   -9.020026E-06
       363   -2.171975E-04
       364    1.707806E-04
       365   -2.236277E-04
       366    6.892694E-03
       367    7.163468E-06
       368    1.287618E-05
       369    1.816995E-05
       370   -2.081674E-04
       371    3.073536E-04
       372   -9.533193E-03
       373   -1.190637E-05
       374   -1.233479E-05
       375    1.272518E-04
       376    3.737565E-05
       377   -5.705671E-05
       378    1.817141E-03
       379   -1.215322E-05
       380   -6.837939E-05
       381   -2.228276E-04
       382    2.378794E-04
       383   -3.615493E-04
       384    1.122013E-02
       385    1.421857E-05
       386    6.589602E-05
       387    1.457220E-04
       388   -7.405007E-05
       389    1.131464E-04
       390   -3.401108E-03
       391    6.160027E-06
       392   -4.423127E-05
       393   -1.405780E-04
       394   -8.782879E-05
       395    1.328988E-04
       396   -4.240046E-03
       397   -9.341484E-08
       398    3.007154E-05
       399    2.120380E-05
       400    6.554917E-05
       401   -1.022540E-04
       402    3.291221E-03
       403   -3.624545E-06
       404   -2.529141E-05
       405   -1.041820E-04
       406   -1.046694E-04
       407    1.587290E-04
       408   -4.910601E-03
       409   -5.681351E-07
       410   -7.196102E-06
       411   -9.554132E-05
       412   -7.784703E-05
       413    1.161444E-04
       414   -3.669231E-03
 Sym= X
 Ene= 0.953212
 Spin= Alpha
 Occup= 0.953212
         1    2.970603E-06
         2    6.447746E-06
         3   -8.563221E-06
         4   -1.372324E-04
         5   -1.296810E-04
         6    3.046251E-04
         7   -4.555551E-04
         8    1.380609E-02
         9    1.549198E-04
        10   -2.117874E-04
        11    7.149265E-03