[Molden Format]
[Title]
 Molden file created by orca_2mkl for BaseName=HBQ-KETO_ESD

[Atoms] AU
C    1   6         -5.8130674439        -0.2878279279         0.1181110830 
C    2   6         -5.8313906698        -2.9086566180         0.0340625813 
C    3   6         -3.6085273631        -4.3110852211        -0.0582874590 
C    4   6         -1.2825587106        -3.0569822075        -0.0690824426 
C    5   6         -1.2198637285        -0.3651830283         0.0151045688 
C    6   6         -3.5283229480         1.1047730688         0.1129171630 
O    7   8         -3.4860126564         3.5450688208         0.1915003576 
C    8   6          1.1805615019         0.8327551555        -0.0002541796 
C    9   6          3.4791585277        -0.5455080445        -0.0941334668 
C   10   6          3.3369250386        -3.2449319351        -0.1770362731 
C   11   6          1.0619370618        -4.4247841880        -0.1641838088 
N   12   7          1.2932911865         3.3998170878         0.0786964243 
C   13   6          3.4565354641         4.6969435625         0.0733296623 
C   14   6          5.7438585712         3.4355877417        -0.0157066252 
C   15   6          5.7451127380         0.8119382168        -0.0992828845 
H   16   1         -0.5517847439         4.1892618824         0.1452794852 
H   17   1         -7.5694440680         0.7618806351         0.1906059395 
H   18   1         -7.6311835052        -3.8877561248         0.0416031954 
H   19   1         -3.6597114518        -6.3547868694        -0.1222265362 
H   20   1          0.9705391890        -6.4695220722        -0.2274325993 
H   21   1          5.0800318358        -4.3137781224        -0.2492434619 
H   22   1          7.5176909142        -0.2096999297        -0.1690104486 
H   23   1          3.3003279562         6.7332873743         0.1420015214 
H   24   1          7.4873497739         4.4991644822        -0.0186814592 
[GTO]
  1 0
s   6 1.0 
    13575.3496820000         0.5435905310
     2035.2333680000         1.0145543947
      463.2256235900         1.7315731970
      131.2001959800         2.6910376290
       42.8530158910         3.6044547126
       15.5841857660         3.7025556986
s   2 1.0 
        6.2067138508         1.8383540830
        2.5764896527         0.5447575605
s   1 1.0 
        0.5769633942         0.4718145038
s   1 1.0 
        0.2297283136         0.2364944676
s   1 1.0 
        0.0951644400         0.1221141848
p   4 1.0 
       34.6972322440         1.3596651507
        7.9582622826         1.4512589486
        2.3780826883         1.2709231419
        0.8143320818         0.8025721189
p   1 1.0 
        0.2888754725         0.3018758868
p   1 1.0 
        0.1005682367         0.0807265016
d   1 1.0 
        1.0970000000         3.3522135855
d   1 1.0 
        0.3180000000         0.3838994974

  2 0
s   6 1.0 
    13575.3496820000         0.5435905310
     2035.2333680000         1.0145543947
      463.2256235900         1.7315731970
      131.2001959800         2.6910376290
       42.8530158910         3.6044547126
       15.5841857660         3.7025556986
s   2 1.0 
        6.2067138508         1.8383540830
        2.5764896527         0.5447575605
s   1 1.0 
        0.5769633942         0.4718145038
s   1 1.0 
        0.2297283136         0.2364944676
s   1 1.0 
        0.0951644400         0.1221141848
p   4 1.0 
       34.6972322440         1.3596651507
        7.9582622826         1.4512589486
        2.3780826883         1.2709231419
        0.8143320818         0.8025721189
p   1 1.0 
        0.2888754725         0.3018758868
p   1 1.0 
        0.1005682367         0.0807265016
d   1 1.0 
        1.0970000000         3.3522135855
d   1 1.0 
        0.3180000000         0.3838994974

  3 0
s   6 1.0 
    13575.3496820000         0.5435905310
     2035.2333680000         1.0145543947
      463.2256235900         1.7315731970
      131.2001959800         2.6910376290
       42.8530158910         3.6044547126
       15.5841857660         3.7025556986
s   2 1.0 
        6.2067138508         1.8383540830
        2.5764896527         0.5447575605
s   1 1.0 
        0.5769633942         0.4718145038
s   1 1.0 
        0.2297283136         0.2364944676
s   1 1.0 
        0.0951644400         0.1221141848
p   4 1.0 
       34.6972322440         1.3596651507
        7.9582622826         1.4512589486
        2.3780826883         1.2709231419
        0.8143320818         0.8025721189
p   1 1.0 
        0.2888754725         0.3018758868
p   1 1.0 
        0.1005682367         0.0807265016
d   1 1.0 
        1.0970000000         3.3522135855
d   1 1.0 
        0.3180000000         0.3838994974

  4 0
s   6 1.0 
    13575.3496820000         0.5435905310
     2035.2333680000         1.0145543947
      463.2256235900         1.7315731970
      131.2001959800         2.6910376290
       42.8530158910         3.6044547126
       15.5841857660         3.7025556986
s   2 1.0 
        6.2067138508         1.8383540830
        2.5764896527         0.5447575605
s   1 1.0 
        0.5769633942         0.4718145038
s   1 1.0 
        0.2297283136         0.2364944676
s   1 1.0 
        0.0951644400         0.1221141848
p   4 1.0 
       34.6972322440         1.3596651507
        7.9582622826         1.4512589486
        2.3780826883         1.2709231419
        0.8143320818         0.8025721189
p   1 1.0 
        0.2888754725         0.3018758868
p   1 1.0 
        0.1005682367         0.0807265016
d   1 1.0 
        1.0970000000         3.3522135855
d   1 1.0 
        0.3180000000         0.3838994974

  5 0
s   6 1.0 
    13575.3496820000         0.5435905310
     2035.2333680000         1.0145543947
      463.2256235900         1.7315731970
      131.2001959800         2.6910376290
       42.8530158910         3.6044547126
       15.5841857660         3.7025556986
s   2 1.0 
        6.2067138508         1.8383540830
        2.5764896527         0.5447575605
s   1 1.0 
        0.5769633942         0.4718145038
s   1 1.0 
        0.2297283136         0.2364944676
s   1 1.0 
        0.0951644400         0.1221141848
p   4 1.0 
       34.6972322440         1.3596651507
        7.9582622826         1.4512589486
        2.3780826883         1.2709231419
        0.8143320818         0.8025721189
p   1 1.0 
        0.2888754725         0.3018758868
p   1 1.0 
        0.1005682367         0.0807265016
d   1 1.0 
        1.0970000000         3.3522135855
d   1 1.0 
        0.3180000000         0.3838994974

  6 0
s   6 1.0 
    13575.3496820000         0.5435905310
     2035.2333680000         1.0145543947
      463.2256235900         1.7315731970
      131.2001959800         2.6910376290
       42.8530158910         3.6044547126
       15.5841857660         3.7025556986
s   2 1.0 
        6.2067138508         1.8383540830
        2.5764896527         0.5447575605
s   1 1.0 
        0.5769633942         0.4718145038
s   1 1.0 
        0.2297283136         0.2364944676
s   1 1.0 
        0.0951644400         0.1221141848
p   4 1.0 
       34.6972322440         1.3596651507
        7.9582622826         1.4512589486
        2.3780826883         1.2709231419
        0.8143320818         0.8025721189
p   1 1.0 
        0.2888754725         0.3018758868
p   1 1.0 
        0.1005682367         0.0807265016
d   1 1.0 
        1.0970000000         3.3522135855
d   1 1.0 
        0.3180000000         0.3838994974

  7 0
s   6 1.0 
    27032.3826310000         0.8598581479
     4052.3871392000         1.6055305368
      922.3272271000         2.7458778516
      261.2407098900         4.2987674426
       85.3546413510         5.8797663284
       31.0350352450         6.3163983216
s   2 1.0 
       12.2608607280         2.9812147522
        4.9987076005         0.9419559635
s   1 1.0 
        1.1703108158         0.8019291610
s   1 1.0 
        0.4647474099         0.4011648062
s   1 1.0 
        0.1850453636         0.2010799406
p   4 1.0 
       63.2749548010         3.0572017144
       14.6270493790         3.3844839414
        4.4501223456         2.9474262132
        1.5275799647         1.7118271494
p   1 1.0 
        0.5293511794         0.6436057926
p   1 1.0 
        0.1747842127         0.1610897254
d   1 1.0 
        2.3140000000        12.3767310624
d   1 1.0 
        0.6450000000         1.3234257612

  8 0
s   6 1.0 
    13575.3496820000         0.5435905310
     2035.2333680000         1.0145543947
      463.2256235900         1.7315731970
      131.2001959800         2.6910376290
       42.8530158910         3.6044547126
       15.5841857660         3.7025556986
s   2 1.0 
        6.2067138508         1.8383540830
        2.5764896527         0.5447575605
s   1 1.0 
        0.5769633942         0.4718145038
s   1 1.0 
        0.2297283136         0.2364944676
s   1 1.0 
        0.0951644400         0.1221141848
p   4 1.0 
       34.6972322440         1.3596651507
        7.9582622826         1.4512589486
        2.3780826883         1.2709231419
        0.8143320818         0.8025721189
p   1 1.0 
        0.2888754725         0.3018758868
p   1 1.0 
        0.1005682367         0.0807265016
d   1 1.0 
        1.0970000000         3.3522135855
d   1 1.0 
        0.3180000000         0.3838994974

  9 0
s   6 1.0 
    13575.3496820000         0.5435905310
     2035.2333680000         1.0145543947
      463.2256235900         1.7315731970
      131.2001959800         2.6910376290
       42.8530158910         3.6044547126
       15.5841857660         3.7025556986
s   2 1.0 
        6.2067138508         1.8383540830
        2.5764896527         0.5447575605
s   1 1.0 
        0.5769633942         0.4718145038
s   1 1.0 
        0.2297283136         0.2364944676
s   1 1.0 
        0.0951644400         0.1221141848
p   4 1.0 
       34.6972322440         1.3596651507
        7.9582622826         1.4512589486
        2.3780826883         1.2709231419
        0.8143320818         0.8025721189
p   1 1.0 
        0.2888754725         0.3018758868
p   1 1.0 
        0.1005682367         0.0807265016
d   1 1.0 
        1.0970000000         3.3522135855
d   1 1.0 
        0.3180000000         0.3838994974

 10 0
s   6 1.0 
    13575.3496820000         0.5435905310
     2035.2333680000         1.0145543947
      463.2256235900         1.7315731970
      131.2001959800         2.6910376290
       42.8530158910         3.6044547126
       15.5841857660         3.7025556986
s   2 1.0 
        6.2067138508         1.8383540830
        2.5764896527         0.5447575605
s   1 1.0 
        0.5769633942         0.4718145038
s   1 1.0 
        0.2297283136         0.2364944676
s   1 1.0 
        0.0951644400         0.1221141848
p   4 1.0 
       34.6972322440         1.3596651507
        7.9582622826         1.4512589486
        2.3780826883         1.2709231419
        0.8143320818         0.8025721189
p   1 1.0 
        0.2888754725         0.3018758868
p   1 1.0 
        0.1005682367         0.0807265016
d   1 1.0 
        1.0970000000         3.3522135855
d   1 1.0 
        0.3180000000         0.3838994974

 11 0
s   6 1.0 
    13575.3496820000         0.5435905310
     2035.2333680000         1.0145543947
      463.2256235900         1.7315731970
      131.2001959800         2.6910376290
       42.8530158910         3.6044547126
       15.5841857660         3.7025556986
s   2 1.0 
        6.2067138508         1.8383540830
        2.5764896527         0.5447575605
s   1 1.0 
        0.5769633942         0.4718145038
s   1 1.0 
        0.2297283136         0.2364944676
s   1 1.0 
        0.0951644400         0.1221141848
p   4 1.0 
       34.6972322440         1.3596651507
        7.9582622826         1.4512589486
        2.3780826883         1.2709231419
        0.8143320818         0.8025721189
p   1 1.0 
        0.2888754725         0.3018758868
p   1 1.0 
        0.1005682367         0.0807265016
d   1 1.0 
        1.0970000000         3.3522135855
d   1 1.0 
        0.3180000000         0.3838994974

 12 0
s   6 1.0 
    19730.8006470000         0.6956035199
     2957.8958745000         1.2986099328
      673.2213359500         2.2190880635
      190.6824949400         3.4636607549
       62.2954418980         4.6967555531
       22.6541611820         4.9522510945
s   2 1.0 
        8.9791477428         2.3880677979
        3.6863002370         0.7337878750
s   1 1.0 
        0.8466007680         0.6290267082
s   1 1.0 
        0.3364713377         0.3148626514
s   1 1.0 
        0.1364765367         0.1600308040
p   4 1.0 
       49.2003805100         2.1264813968
       11.3467905370         2.3279367185
        3.4273972411         2.0485729192
        1.1785525134         1.2607319854
p   1 1.0 
        0.4164220497         0.4768230427
p   1 1.0 
        0.1426082601         0.1249168256
d   1 1.0 
        1.6540000000         6.8771297418
d   1 1.0 
        0.4690000000         0.7577440909

 13 0
s   6 1.0 
    13575.3496820000         0.5435905310
     2035.2333680000         1.0145543947
      463.2256235900         1.7315731970
      131.2001959800         2.6910376290
       42.8530158910         3.6044547126
       15.5841857660         3.7025556986
s   2 1.0 
        6.2067138508         1.8383540830
        2.5764896527         0.5447575605
s   1 1.0 
        0.5769633942         0.4718145038
s   1 1.0 
        0.2297283136         0.2364944676
s   1 1.0 
        0.0951644400         0.1221141848
p   4 1.0 
       34.6972322440         1.3596651507
        7.9582622826         1.4512589486
        2.3780826883         1.2709231419
        0.8143320818         0.8025721189
p   1 1.0 
        0.2888754725         0.3018758868
p   1 1.0 
        0.1005682367         0.0807265016
d   1 1.0 
        1.0970000000         3.3522135855
d   1 1.0 
        0.3180000000         0.3838994974

 14 0
s   6 1.0 
    13575.3496820000         0.5435905310
     2035.2333680000         1.0145543947
      463.2256235900         1.7315731970
      131.2001959800         2.6910376290
       42.8530158910         3.6044547126
       15.5841857660         3.7025556986
s   2 1.0 
        6.2067138508         1.8383540830
        2.5764896527         0.5447575605
s   1 1.0 
        0.5769633942         0.4718145038
s   1 1.0 
        0.2297283136         0.2364944676
s   1 1.0 
        0.0951644400         0.1221141848
p   4 1.0 
       34.6972322440         1.3596651507
        7.9582622826         1.4512589486
        2.3780826883         1.2709231419
        0.8143320818         0.8025721189
p   1 1.0 
        0.2888754725         0.3018758868
p   1 1.0 
        0.1005682367         0.0807265016
d   1 1.0 
        1.0970000000         3.3522135855
d   1 1.0 
        0.3180000000         0.3838994974

 15 0
s   6 1.0 
    13575.3496820000         0.5435905310
     2035.2333680000         1.0145543947
      463.2256235900         1.7315731970
      131.2001959800         2.6910376290
       42.8530158910         3.6044547126
       15.5841857660         3.7025556986
s   2 1.0 
        6.2067138508         1.8383540830
        2.5764896527         0.5447575605
s   1 1.0 
        0.5769633942         0.4718145038
s   1 1.0 
        0.2297283136         0.2364944676
s   1 1.0 
        0.0951644400         0.1221141848
p   4 1.0 
       34.6972322440         1.3596651507
        7.9582622826         1.4512589486
        2.3780826883         1.2709231419
        0.8143320818         0.8025721189
p   1 1.0 
        0.2888754725         0.3018758868
p   1 1.0 
        0.1005682367         0.0807265016
d   1 1.0 
        1.0970000000         3.3522135855
d   1 1.0 
        0.3180000000         0.3838994974

 16 0
s   3 1.0 
       34.0613410000         0.2556299169
        5.1235746000         0.4613599649
        1.1646626000         0.6811214941
s   1 1.0 
        0.3272304100         0.3083545312
s   1 1.0 
        0.1030724100         0.1296483265
p   1 1.0 
        0.8000000000         1.0784563492

 17 0
s   3 1.0 
       34.0613410000         0.2556299169
        5.1235746000         0.4613599649
        1.1646626000         0.6811214941
s   1 1.0 
        0.3272304100         0.3083545312
s   1 1.0 
        0.1030724100         0.1296483265
p   1 1.0 
        0.8000000000         1.0784563492

 18 0
s   3 1.0 
       34.0613410000         0.2556299169
        5.1235746000         0.4613599649
        1.1646626000         0.6811214941
s   1 1.0 
        0.3272304100         0.3083545312
s   1 1.0 
        0.1030724100         0.1296483265
p   1 1.0 
        0.8000000000         1.0784563492

 19 0
s   3 1.0 
       34.0613410000         0.2556299169
        5.1235746000         0.4613599649
        1.1646626000         0.6811214941
s   1 1.0 
        0.3272304100         0.3083545312
s   1 1.0 
        0.1030724100         0.1296483265
p   1 1.0 
        0.8000000000         1.0784563492

 20 0
s   3 1.0 
       34.0613410000         0.2556299169
        5.1235746000         0.4613599649
        1.1646626000         0.6811214941
s   1 1.0 
        0.3272304100         0.3083545312
s   1 1.0 
        0.1030724100         0.1296483265
p   1 1.0 
        0.8000000000         1.0784563492

 21 0
s   3 1.0 
       34.0613410000         0.2556299169
        5.1235746000         0.4613599649
        1.1646626000         0.6811214941
s   1 1.0 
        0.3272304100         0.3083545312
s   1 1.0 
        0.1030724100         0.1296483265
p   1 1.0 
        0.8000000000         1.0784563492

 22 0
s   3 1.0 
       34.0613410000         0.2556299169
        5.1235746000         0.4613599649
        1.1646626000         0.6811214941
s   1 1.0 
        0.3272304100         0.3083545312
s   1 1.0 
        0.1030724100         0.1296483265
p   1 1.0 
        0.8000000000         1.0784563492

 23 0
s   3 1.0 
       34.0613410000         0.2556299169
        5.1235746000         0.4613599649
        1.1646626000         0.6811214941
s   1 1.0 
        0.3272304100         0.3083545312
s   1 1.0 
        0.1030724100         0.1296483265
p   1 1.0 
        0.8000000000         1.0784563492

 24 0
s   3 1.0 
       34.0613410000         0.2556299169
        5.1235746000         0.4613599649
        1.1646626000         0.6811214941
s   1 1.0 
        0.3272304100         0.3083545312
s   1 1.0 
        0.1030724100         0.1296483265
p   1 1.0 
        0.8000000000         1.0784563492

[5D]
[7F]
[9G]
[MO]
 Sym= X
 Ene= -0.976547
 Spin= Alpha
 Occup= -0.976547
         1   -1.440469E-05
         2   -3.153532E-05
         3    5.713683E-05
         4    4.869864E-05
         5    6.524038E-04
         6    4.213876E-03
         7   -6.056063E-03
         8    1.886091E-01
         9    3.664852E-03
        10   -5.383747E-03
        11    1.667243E-01
        12    3.722644E-03
        13   -5.267338E-03
        14    1.636656E-01
        15   -3.044344E-05
        16    3.878249E-03
        17    2.131644E-03
        18    1.570801E-04
        19   -7.530608E-05
        20    1.326040E-04
        21    6.415798E-03
        22    6.583424E-03
        23    3.416294E-04
        24   -8.127812E-05
        25    1.350346E-06
        26    2.998941E-06
        27   -1.226871E-05
        28    8.069872E-05
        29   -9.707596E-04
        30   -8.009914E-04
        31    1.142769E-03
        32   -3.594373E-02
        33   -7.087640E-04
        34    1.036352E-03
        35   -3.273461E-02
        36   -9.193037E-04
        37    5.583147E-04
        38   -2.251496E-02
        39    8.627888E-04
        40   -6.642401E-03
        41    1.109710E-02
        42    2.123014E-04
        43    4.591343E-04
        44    1.615463E-03
        45   -9.934789E-03
        46    2.230810E-02
        47    5.068508E-04
        48    7.922971E-04
        49    6.857004E-06
        50    1.433694E-05
        51   -2.204223E-05
        52    3.514114E-05
        53    1.371153E-03
        54   -4.623857E-03
        55    6.874261E-03
        56   -2.168452E-01
        57   -3.961785E-03
        58    6.054296E-03
        59   -1.898262E-01
        60   -3.857519E-03
        61    6.381481E-03
        62   -1.802989E-01
        63   -1.119713E-04
        64   -6.384156E-04
        65   -2.475779E-03
        66   -9.378368E-05
        67   -3.086384E-05
        68    2.137336E-04
        69   -1.509237E-03
        70    2.883104E-03
        71    7.639286E-05
        72    1.478813E-04
        73    2.828944E-06
        74    4.870675E-06
        75    1.409426E-05
        76   -8.956534E-05
        77    2.540793E-05
        78   -1.428725E-03
        79    1.994668E-03
        80   -6.332214E-02
        81   -1.255206E-03
        82    1.944680E-03
        83   -5.835716E-02
        84    7.727218E-04
        85    5.571059E-04
        86   -2.857835E-02
        87    1.144975E-05
        88    9.004126E-03
        89    6.404040E-03
        90    4.009656E-04
        91   -1.395343E-04
        92    1.158569E-04
        93    1.853694E-02
        94    1.476241E-02
        95    7.990713E-04
        96   -3.103148E-04
        97   -1.846312E-06
        98   -4.051993E-06
        99    3.357292E-06
       100    3.089393E-05
       101   -3.048047E-03
       102    2.577986E-03
       103   -3.618788E-03
       104    1.138737E-01
       105    2.325550E-03
       106   -3.180550E-03
       107    1.029970E-01
       108    1.640975E-04
       109   -4.241728E-03
       110    1.037781E-01
       111    2.732721E-04
       112   -3.324489E-03
       113    2.674747E-03
       114    1.403970E-05
       115    1.716693E-04
       116    7.636440E-04
       117   -9.386814E-03
       118    7.383987E-03
       119    1.210185E-04
       120    4.103425E-04
       121    5.368774E-07
       122    2.088203E-07
       123    1.448589E-05
       124   -1.356388E-04
       125   -6.446444E-04
       126    2.445831E-03
       127   -3.718741E-03
       128    1.141718E-01
       129    2.474649E-03
       130   -3.823960E-03
       131    1.186893E-01
       132    7.708410E-04
       133   -6.507010E-04
       134    2.634947E-02
       135   -7.695563E-04
       136   -2.697957E-03
       137   -1.549443E-02
       138   -5.594848E-04
       139   -2.408097E-04
       140   -1.220276E-03
       141   -5.993129E-03
       142   -2.575063E-02
       143   -9.330936E-04
       144   -2.943433E-04
       145    3.786191E-06
       146    9.118686E-06
       147   -1.600473E-05
       148   -1.925230E-05
       149    1.940757E-05
       150   -4.809318E-03
       151    7.407493E-03
       152   -2.267818E-01
       153   -3.909863E-03
       154    6.041245E-03
       155   -1.846715E-01
       156   -4.175159E-03
       157    6.238945E-03
       158   -1.935794E-01
       159    3.586754E-05
       160   -1.670989E-04
       161    5.096076E-04
       162    1.395198E-05
       163    1.497675E-05
       164    4.306516E-04
       165   -3.945403E-03
       166    4.956301E-03
       167    7.530286E-05
       168    2.394335E-04
       169   -7.308041E-06
       170   -1.624068E-05
       171    3.423562E-05
       172    1.910491E-05
       173    2.981912E-03
       174   -7.905565E-04
       175    1.075393E-03
       176   -3.404649E-02
       177   -4.888800E-04
       178    7.734477E-04
       179   -2.445088E-02
       180   -2.782843E-03
       181   -6.335126E-04
       182   -3.304347E-02
       183    8.436102E-05
       184   -6.313096E-03
       185   -2.851698E-03
       186   -2.318863E-04
       187    1.454123E-04
       188    1.079263E-04
       189   -1.056361E-02
       190   -5.402382E-03
       191   -3.202556E-04
       192    1.786740E-04
       193    3.346916E-06
       194    8.537549E-06
       195   -3.898663E-05
       196    8.254421E-05
       197   -4.931238E-04
       198   -1.595685E-03
       199    2.383238E-03
       200   -7.547726E-02
       201   -1.352561E-03
       202    2.205646E-03
       203   -6.972027E-02
       204   -1.780870E-04
       205    3.380497E-03
       206   -5.090298E-02
       207   -2.203942E-04
       208   -1.908064E-03
       209   -5.279884E-03
       210   -2.101999E-04
       211   -5.541845E-05
       212   -5.693435E-04
       213   -2.771135E-03
       214   -1.193903E-02
       215   -3.885114E-04
       216   -7.464592E-05
       217    1.090431E-06
       218    2.473571E-06
       219   -2.610576E-06
       220    5.463946E-05
       221    2.250310E-03
       222    1.993401E-03
       223   -2.913145E-03
       224    9.165779E-02
       225    1.761432E-03
       226   -2.561691E-03
       227    8.079532E-02
       228    1.189802E-03
       229   -1.647972E-03
       230    7.572761E-02
       231   -6.321983E-05
       232   -3.709887E-03
       233   -3.707437E-03
       234   -1.994738E-04
       235    3.950099E-05
       236   -1.738457E-04
       237   -7.424295E-03
       238   -8.416702E-03
       239   -4.552149E-04
       240    1.113652E-04
       241   -7.888916E-08
       242   -3.013625E-07
       243   -9.504953E-07
       244   -1.960027E-05
       245   -1.859891E-03
       246    2.004483E-03
       247   -2.824858E-03
       248    8.867283E-02
       249    1.757139E-03
       250   -2.497093E-03
       251    7.899288E-02
       252    1.373203E-03
       253   -2.288152E-03
       254    4.981430E-02
       255   -1.106621E-04
       256    5.521955E-03
       257    1.825671E-03
       258    1.818962E-04
       259   -1.324848E-04
       260   -3.866901E-04
       261    1.013524E-02
       262    1.032777E-04
       263    1.770356E-04
       264   -3.239801E-04
       265    1.084893E-05
       266    2.459733E-05
       267   -3.775415E-05
       268   -7.118130E-05
       269    4.962009E-04
       270   -8.805121E-04
       271    1.382004E-03
       272   -4.473339E-02
       273   -7.158613E-04
       274    1.094328E-03
       275   -3.635671E-02
       276   -1.114876E-03
       277    1.741207E-03
       278   -6.069872E-02
       279    4.404425E-05
       280    1.585783E-03
       281    1.908468E-03
       282    9.655767E-05
       283   -7.737517E-06
       284    1.137368E-04
       285    5.373396E-03
       286    5.891987E-03
       287    3.012996E-04
       288   -5.100877E-05
       289   -2.187403E-06
       290   -5.218875E-06
       291    1.607878E-05
       292   -6.721235E-05
       293    4.151365E-05
       294    1.940591E-03
       295   -2.942972E-03
       296    9.174270E-02
       297    1.850858E-03
       298   -2.808610E-03
       299    8.801771E-02
       300    1.508896E-03
       301   -2.339944E-03
       302    6.829593E-02
       303   -1.580291E-04
       304    3.862409E-03
       305   -2.479876E-04
       306    7.175173E-05
       307   -1.252120E-04
       308   -1.070524E-04
       309    4.247962E-03
       310    8.802882E-04
       311    1.144733E-04
       312   -1.119814E-04
       313    2.359741E-06
       314    5.239183E-06
       315   -9.807274E-06
       316   -4.766291E-05
       317    1.828360E-04
       318    1.312515E-03
       319   -1.956242E-03
       320    6.112940E-02
       321    1.157531E-03
       322   -1.695885E-03
       323    5.351743E-02
       324    9.389651E-04
       325   -1.759706E-03
       326    5.115288E-02
       327    3.506811E-04
       328   -3.020144E-03
       329    4.306690E-03
       330    7.435286E-05
       331    1.888564E-04
       332    6.715993E-04
       333   -3.951654E-03
       334    9.650193E-03
       335    2.297149E-04
       336    3.211403E-04
       337   -1.145344E-06
       338   -2.748984E-06
       339    2.159658E-05
       340   -2.294895E-04
       341   -1.298941E-03
       342   -1.546380E-03
       343    2.316098E-03
       344   -7.295697E-02
       345   -1.257451E-03
       346    2.145282E-03
       347   -6.530155E-02
       348   -8.892717E-04
       349    1.945530E-03
       350   -6.136965E-02
       351    6.930398E-05
       352    2.793235E-03
       353    3.092663E-03
       354    1.567962E-04
       355   -2.247019E-05
       356    2.787836E-04
       357    4.284590E-03
       358    7.879297E-03
       359    3.258076E-04
       360   -2.002892E-05
       361   -1.809123E-06
       362    1.378969E-05
       363    2.553452E-04
       364   -1.734558E-04
       365    2.105356E-04
       366   -6.506604E-03
       367   -1.052429E-05
       368   -2.085834E-05
       369   -7.532745E-05
       370    2.120707E-04
       371   -3.120704E-04
       372    9.683742E-03
       373    2.280621E-05
       374    3.299031E-05
       375   -8.979018E-05
       376   -3.387646E-05
       377    5.316123E-05
       378   -1.701147E-03
       379    9.269746E-06
       380    6.052603E-05
       381    2.107205E-04
       382   -2.379746E-04
       383    3.614639E-04
       384   -1.124152E-02
       385   -5.039655E-06
       386   -4.976655E-05
       387   -1.349858E-04
       388    8.537395E-05
       389   -1.278191E-04
       390    3.886287E-03
       391   -1.476155E-05
       392    2.995354E-05
       393    1.252971E-04
       394    1.028611E-04
       395   -1.537914E-04
       396    4.888571E-03
       397   -5.937975E-06
       398   -4.063843E-05
       399   -3.443463E-05
       400   -7.045949E-05
       401    1.102798E-04
       402   -3.549847E-03
       403    1.062545E-05
       404    3.703323E-05
       405    1.078533E-04
       406    1.025513E-04
       407   -1.566457E-04
       408    4.828661E-03
       409    5.257097E-06
       410    1.456400E-05
       411    1.035642E-04
       412    6.839184E-05
       413   -1.023579E-04
       414    3.220825E-03
 Sym= X
 Ene= 0.976547
 Spin= Alpha
 Occup= 0.976547
         1    6.597561E-06
         2    1.483598E-05
         3   -2.510629E-05
         4   -3.381083E-04
         5    3.850190E-03
         6   -2.102331E-03
         7    2.998513E-03
         8   -9.354896E-02
         9   -1.898541E-03
        10    2.769855E-03
        11   -8.338637E-02