[Molden Format]
[Title]
 Molden file created by orca_2mkl for BaseName=HBQ-KETO_ESD

[Atoms] AU
C    1   6         -5.8130674439        -0.2878279279         0.1181110830 
C    2   6         -5.8313906698        -2.9086566180         0.0340625813 
C    3   6         -3.6085273631        -4.3110852211        -0.0582874590 
C    4   6         -1.2825587106        -3.0569822075        -0.0690824426 
C    5   6         -1.2198637285        -0.3651830283         0.0151045688 
C    6   6         -3.5283229480         1.1047730688         0.1129171630 
O    7   8         -3.4860126564         3.5450688208         0.1915003576 
C    8   6          1.1805615019         0.8327551555        -0.0002541796 
C    9   6          3.4791585277        -0.5455080445        -0.0941334668 
C   10   6          3.3369250386        -3.2449319351        -0.1770362731 
C   11   6          1.0619370618        -4.4247841880        -0.1641838088 
N   12   7          1.2932911865         3.3998170878         0.0786964243 
C   13   6          3.4565354641         4.6969435625         0.0733296623 
C   14   6          5.7438585712         3.4355877417        -0.0157066252 
C   15   6          5.7451127380         0.8119382168        -0.0992828845 
H   16   1         -0.5517847439         4.1892618824         0.1452794852 
H   17   1         -7.5694440680         0.7618806351         0.1906059395 
H   18   1         -7.6311835052        -3.8877561248         0.0416031954 
H   19   1         -3.6597114518        -6.3547868694        -0.1222265362 
H   20   1          0.9705391890        -6.4695220722        -0.2274325993 
H   21   1          5.0800318358        -4.3137781224        -0.2492434619 
H   22   1          7.5176909142        -0.2096999297        -0.1690104486 
H   23   1          3.3003279562         6.7332873743         0.1420015214 
H   24   1          7.4873497739         4.4991644822        -0.0186814592 
[GTO]
  1 0
s   6 1.0 
    13575.3496820000         0.5435905310
     2035.2333680000         1.0145543947
      463.2256235900         1.7315731970
      131.2001959800         2.6910376290
       42.8530158910         3.6044547126
       15.5841857660         3.7025556986
s   2 1.0 
        6.2067138508         1.8383540830
        2.5764896527         0.5447575605
s   1 1.0 
        0.5769633942         0.4718145038
s   1 1.0 
        0.2297283136         0.2364944676
s   1 1.0 
        0.0951644400         0.1221141848
p   4 1.0 
       34.6972322440         1.3596651507
        7.9582622826         1.4512589486
        2.3780826883         1.2709231419
        0.8143320818         0.8025721189
p   1 1.0 
        0.2888754725         0.3018758868
p   1 1.0 
        0.1005682367         0.0807265016
d   1 1.0 
        1.0970000000         3.3522135855
d   1 1.0 
        0.3180000000         0.3838994974

  2 0
s   6 1.0 
    13575.3496820000         0.5435905310
     2035.2333680000         1.0145543947
      463.2256235900         1.7315731970
      131.2001959800         2.6910376290
       42.8530158910         3.6044547126
       15.5841857660         3.7025556986
s   2 1.0 
        6.2067138508         1.8383540830
        2.5764896527         0.5447575605
s   1 1.0 
        0.5769633942         0.4718145038
s   1 1.0 
        0.2297283136         0.2364944676
s   1 1.0 
        0.0951644400         0.1221141848
p   4 1.0 
       34.6972322440         1.3596651507
        7.9582622826         1.4512589486
        2.3780826883         1.2709231419
        0.8143320818         0.8025721189
p   1 1.0 
        0.2888754725         0.3018758868
p   1 1.0 
        0.1005682367         0.0807265016
d   1 1.0 
        1.0970000000         3.3522135855
d   1 1.0 
        0.3180000000         0.3838994974

  3 0
s   6 1.0 
    13575.3496820000         0.5435905310
     2035.2333680000         1.0145543947
      463.2256235900         1.7315731970
      131.2001959800         2.6910376290
       42.8530158910         3.6044547126
       15.5841857660         3.7025556986
s   2 1.0 
        6.2067138508         1.8383540830
        2.5764896527         0.5447575605
s   1 1.0 
        0.5769633942         0.4718145038
s   1 1.0 
        0.2297283136         0.2364944676
s   1 1.0 
        0.0951644400         0.1221141848
p   4 1.0 
       34.6972322440         1.3596651507
        7.9582622826         1.4512589486
        2.3780826883         1.2709231419
        0.8143320818         0.8025721189
p   1 1.0 
        0.2888754725         0.3018758868
p   1 1.0 
        0.1005682367         0.0807265016
d   1 1.0 
        1.0970000000         3.3522135855
d   1 1.0 
        0.3180000000         0.3838994974

  4 0
s   6 1.0 
    13575.3496820000         0.5435905310
     2035.2333680000         1.0145543947
      463.2256235900         1.7315731970
      131.2001959800         2.6910376290
       42.8530158910         3.6044547126
       15.5841857660         3.7025556986
s   2 1.0 
        6.2067138508         1.8383540830
        2.5764896527         0.5447575605
s   1 1.0 
        0.5769633942         0.4718145038
s   1 1.0 
        0.2297283136         0.2364944676
s   1 1.0 
        0.0951644400         0.1221141848
p   4 1.0 
       34.6972322440         1.3596651507
        7.9582622826         1.4512589486
        2.3780826883         1.2709231419
        0.8143320818         0.8025721189
p   1 1.0 
        0.2888754725         0.3018758868
p   1 1.0 
        0.1005682367         0.0807265016
d   1 1.0 
        1.0970000000         3.3522135855
d   1 1.0 
        0.3180000000         0.3838994974

  5 0
s   6 1.0 
    13575.3496820000         0.5435905310
     2035.2333680000         1.0145543947
      463.2256235900         1.7315731970
      131.2001959800         2.6910376290
       42.8530158910         3.6044547126
       15.5841857660         3.7025556986
s   2 1.0 
        6.2067138508         1.8383540830
        2.5764896527         0.5447575605
s   1 1.0 
        0.5769633942         0.4718145038
s   1 1.0 
        0.2297283136         0.2364944676
s   1 1.0 
        0.0951644400         0.1221141848
p   4 1.0 
       34.6972322440         1.3596651507
        7.9582622826         1.4512589486
        2.3780826883         1.2709231419
        0.8143320818         0.8025721189
p   1 1.0 
        0.2888754725         0.3018758868
p   1 1.0 
        0.1005682367         0.0807265016
d   1 1.0 
        1.0970000000         3.3522135855
d   1 1.0 
        0.3180000000         0.3838994974

  6 0
s   6 1.0 
    13575.3496820000         0.5435905310
     2035.2333680000         1.0145543947
      463.2256235900         1.7315731970
      131.2001959800         2.6910376290
       42.8530158910         3.6044547126
       15.5841857660         3.7025556986
s   2 1.0 
        6.2067138508         1.8383540830
        2.5764896527         0.5447575605
s   1 1.0 
        0.5769633942         0.4718145038
s   1 1.0 
        0.2297283136         0.2364944676
s   1 1.0 
        0.0951644400         0.1221141848
p   4 1.0 
       34.6972322440         1.3596651507
        7.9582622826         1.4512589486
        2.3780826883         1.2709231419
        0.8143320818         0.8025721189
p   1 1.0 
        0.2888754725         0.3018758868
p   1 1.0 
        0.1005682367         0.0807265016
d   1 1.0 
        1.0970000000         3.3522135855
d   1 1.0 
        0.3180000000         0.3838994974

  7 0
s   6 1.0 
    27032.3826310000         0.8598581479
     4052.3871392000         1.6055305368
      922.3272271000         2.7458778516
      261.2407098900         4.2987674426
       85.3546413510         5.8797663284
       31.0350352450         6.3163983216
s   2 1.0 
       12.2608607280         2.9812147522
        4.9987076005         0.9419559635
s   1 1.0 
        1.1703108158         0.8019291610
s   1 1.0 
        0.4647474099         0.4011648062
s   1 1.0 
        0.1850453636         0.2010799406
p   4 1.0 
       63.2749548010         3.0572017144
       14.6270493790         3.3844839414
        4.4501223456         2.9474262132
        1.5275799647         1.7118271494
p   1 1.0 
        0.5293511794         0.6436057926
p   1 1.0 
        0.1747842127         0.1610897254
d   1 1.0 
        2.3140000000        12.3767310624
d   1 1.0 
        0.6450000000         1.3234257612

  8 0
s   6 1.0 
    13575.3496820000         0.5435905310
     2035.2333680000         1.0145543947
      463.2256235900         1.7315731970
      131.2001959800         2.6910376290
       42.8530158910         3.6044547126
       15.5841857660         3.7025556986
s   2 1.0 
        6.2067138508         1.8383540830
        2.5764896527         0.5447575605
s   1 1.0 
        0.5769633942         0.4718145038
s   1 1.0 
        0.2297283136         0.2364944676
s   1 1.0 
        0.0951644400         0.1221141848
p   4 1.0 
       34.6972322440         1.3596651507
        7.9582622826         1.4512589486
        2.3780826883         1.2709231419
        0.8143320818         0.8025721189
p   1 1.0 
        0.2888754725         0.3018758868
p   1 1.0 
        0.1005682367         0.0807265016
d   1 1.0 
        1.0970000000         3.3522135855
d   1 1.0 
        0.3180000000         0.3838994974

  9 0
s   6 1.0 
    13575.3496820000         0.5435905310
     2035.2333680000         1.0145543947
      463.2256235900         1.7315731970
      131.2001959800         2.6910376290
       42.8530158910         3.6044547126
       15.5841857660         3.7025556986
s   2 1.0 
        6.2067138508         1.8383540830
        2.5764896527         0.5447575605
s   1 1.0 
        0.5769633942         0.4718145038
s   1 1.0 
        0.2297283136         0.2364944676
s   1 1.0 
        0.0951644400         0.1221141848
p   4 1.0 
       34.6972322440         1.3596651507
        7.9582622826         1.4512589486
        2.3780826883         1.2709231419
        0.8143320818         0.8025721189
p   1 1.0 
        0.2888754725         0.3018758868
p   1 1.0 
        0.1005682367         0.0807265016
d   1 1.0 
        1.0970000000         3.3522135855
d   1 1.0 
        0.3180000000         0.3838994974

 10 0
s   6 1.0 
    13575.3496820000         0.5435905310
     2035.2333680000         1.0145543947
      463.2256235900         1.7315731970
      131.2001959800         2.6910376290
       42.8530158910         3.6044547126
       15.5841857660         3.7025556986
s   2 1.0 
        6.2067138508         1.8383540830
        2.5764896527         0.5447575605
s   1 1.0 
        0.5769633942         0.4718145038
s   1 1.0 
        0.2297283136         0.2364944676
s   1 1.0 
        0.0951644400         0.1221141848
p   4 1.0 
       34.6972322440         1.3596651507
        7.9582622826         1.4512589486
        2.3780826883         1.2709231419
        0.8143320818         0.8025721189
p   1 1.0 
        0.2888754725         0.3018758868
p   1 1.0 
        0.1005682367         0.0807265016
d   1 1.0 
        1.0970000000         3.3522135855
d   1 1.0 
        0.3180000000         0.3838994974

 11 0
s   6 1.0 
    13575.3496820000         0.5435905310
     2035.2333680000         1.0145543947
      463.2256235900         1.7315731970
      131.2001959800         2.6910376290
       42.8530158910         3.6044547126
       15.5841857660         3.7025556986
s   2 1.0 
        6.2067138508         1.8383540830
        2.5764896527         0.5447575605
s   1 1.0 
        0.5769633942         0.4718145038
s   1 1.0 
        0.2297283136         0.2364944676
s   1 1.0 
        0.0951644400         0.1221141848
p   4 1.0 
       34.6972322440         1.3596651507
        7.9582622826         1.4512589486
        2.3780826883         1.2709231419
        0.8143320818         0.8025721189
p   1 1.0 
        0.2888754725         0.3018758868
p   1 1.0 
        0.1005682367         0.0807265016
d   1 1.0 
        1.0970000000         3.3522135855
d   1 1.0 
        0.3180000000         0.3838994974

 12 0
s   6 1.0 
    19730.8006470000         0.6956035199
     2957.8958745000         1.2986099328
      673.2213359500         2.2190880635
      190.6824949400         3.4636607549
       62.2954418980         4.6967555531
       22.6541611820         4.9522510945
s   2 1.0 
        8.9791477428         2.3880677979
        3.6863002370         0.7337878750
s   1 1.0 
        0.8466007680         0.6290267082
s   1 1.0 
        0.3364713377         0.3148626514
s   1 1.0 
        0.1364765367         0.1600308040
p   4 1.0 
       49.2003805100         2.1264813968
       11.3467905370         2.3279367185
        3.4273972411         2.0485729192
        1.1785525134         1.2607319854
p   1 1.0 
        0.4164220497         0.4768230427
p   1 1.0 
        0.1426082601         0.1249168256
d   1 1.0 
        1.6540000000         6.8771297418
d   1 1.0 
        0.4690000000         0.7577440909

 13 0
s   6 1.0 
    13575.3496820000         0.5435905310
     2035.2333680000         1.0145543947
      463.2256235900         1.7315731970
      131.2001959800         2.6910376290
       42.8530158910         3.6044547126
       15.5841857660         3.7025556986
s   2 1.0 
        6.2067138508         1.8383540830
        2.5764896527         0.5447575605
s   1 1.0 
        0.5769633942         0.4718145038
s   1 1.0 
        0.2297283136         0.2364944676
s   1 1.0 
        0.0951644400         0.1221141848
p   4 1.0 
       34.6972322440         1.3596651507
        7.9582622826         1.4512589486
        2.3780826883         1.2709231419
        0.8143320818         0.8025721189
p   1 1.0 
        0.2888754725         0.3018758868
p   1 1.0 
        0.1005682367         0.0807265016
d   1 1.0 
        1.0970000000         3.3522135855
d   1 1.0 
        0.3180000000         0.3838994974

 14 0
s   6 1.0 
    13575.3496820000         0.5435905310
     2035.2333680000         1.0145543947
      463.2256235900         1.7315731970
      131.2001959800         2.6910376290
       42.8530158910         3.6044547126
       15.5841857660         3.7025556986
s   2 1.0 
        6.2067138508         1.8383540830
        2.5764896527         0.5447575605
s   1 1.0 
        0.5769633942         0.4718145038
s   1 1.0 
        0.2297283136         0.2364944676
s   1 1.0 
        0.0951644400         0.1221141848
p   4 1.0 
       34.6972322440         1.3596651507
        7.9582622826         1.4512589486
        2.3780826883         1.2709231419
        0.8143320818         0.8025721189
p   1 1.0 
        0.2888754725         0.3018758868
p   1 1.0 
        0.1005682367         0.0807265016
d   1 1.0 
        1.0970000000         3.3522135855
d   1 1.0 
        0.3180000000         0.3838994974

 15 0
s   6 1.0 
    13575.3496820000         0.5435905310
     2035.2333680000         1.0145543947
      463.2256235900         1.7315731970
      131.2001959800         2.6910376290
       42.8530158910         3.6044547126
       15.5841857660         3.7025556986
s   2 1.0 
        6.2067138508         1.8383540830
        2.5764896527         0.5447575605
s   1 1.0 
        0.5769633942         0.4718145038
s   1 1.0 
        0.2297283136         0.2364944676
s   1 1.0 
        0.0951644400         0.1221141848
p   4 1.0 
       34.6972322440         1.3596651507
        7.9582622826         1.4512589486
        2.3780826883         1.2709231419
        0.8143320818         0.8025721189
p   1 1.0 
        0.2888754725         0.3018758868
p   1 1.0 
        0.1005682367         0.0807265016
d   1 1.0 
        1.0970000000         3.3522135855
d   1 1.0 
        0.3180000000         0.3838994974

 16 0
s   3 1.0 
       34.0613410000         0.2556299169
        5.1235746000         0.4613599649
        1.1646626000         0.6811214941
s   1 1.0 
        0.3272304100         0.3083545312
s   1 1.0 
        0.1030724100         0.1296483265
p   1 1.0 
        0.8000000000         1.0784563492

 17 0
s   3 1.0 
       34.0613410000         0.2556299169
        5.1235746000         0.4613599649
        1.1646626000         0.6811214941
s   1 1.0 
        0.3272304100         0.3083545312
s   1 1.0 
        0.1030724100         0.1296483265
p   1 1.0 
        0.8000000000         1.0784563492

 18 0
s   3 1.0 
       34.0613410000         0.2556299169
        5.1235746000         0.4613599649
        1.1646626000         0.6811214941
s   1 1.0 
        0.3272304100         0.3083545312
s   1 1.0 
        0.1030724100         0.1296483265
p   1 1.0 
        0.8000000000         1.0784563492

 19 0
s   3 1.0 
       34.0613410000         0.2556299169
        5.1235746000         0.4613599649
        1.1646626000         0.6811214941
s   1 1.0 
        0.3272304100         0.3083545312
s   1 1.0 
        0.1030724100         0.1296483265
p   1 1.0 
        0.8000000000         1.0784563492

 20 0
s   3 1.0 
       34.0613410000         0.2556299169
        5.1235746000         0.4613599649
        1.1646626000         0.6811214941
s   1 1.0 
        0.3272304100         0.3083545312
s   1 1.0 
        0.1030724100         0.1296483265
p   1 1.0 
        0.8000000000         1.0784563492

 21 0
s   3 1.0 
       34.0613410000         0.2556299169
        5.1235746000         0.4613599649
        1.1646626000         0.6811214941
s   1 1.0 
        0.3272304100         0.3083545312
s   1 1.0 
        0.1030724100         0.1296483265
p   1 1.0 
        0.8000000000         1.0784563492

 22 0
s   3 1.0 
       34.0613410000         0.2556299169
        5.1235746000         0.4613599649
        1.1646626000         0.6811214941
s   1 1.0 
        0.3272304100         0.3083545312
s   1 1.0 
        0.1030724100         0.1296483265
p   1 1.0 
        0.8000000000         1.0784563492

 23 0
s   3 1.0 
       34.0613410000         0.2556299169
        5.1235746000         0.4613599649
        1.1646626000         0.6811214941
s   1 1.0 
        0.3272304100         0.3083545312
s   1 1.0 
        0.1030724100         0.1296483265
p   1 1.0 
        0.8000000000         1.0784563492

 24 0
s   3 1.0 
       34.0613410000         0.2556299169
        5.1235746000         0.4613599649
        1.1646626000         0.6811214941
s   1 1.0 
        0.3272304100         0.3083545312
s   1 1.0 
        0.1030724100         0.1296483265
p   1 1.0 
        0.8000000000         1.0784563492

[5D]
[7F]
[9G]
[MO]
 Sym= X
 Ene= -0.068604
 Spin= Alpha
 Occup= -0.068604
         1   -9.763814E-05
         2   -2.119344E-04
         3    3.628649E-04
         4    3.468522E-04
         5   -4.256668E-03
         6    3.644480E-03
         7   -3.830472E-03
         8    1.356214E-01
         9    2.838776E-03
        10   -3.526965E-03
        11    1.170045E-01
        12   -9.414278E-05
        13   -1.871865E-03
        14    8.079394E-02
        15   -2.987999E-04
        16   -5.927066E-05
        17   -5.396741E-03
        18   -1.445806E-04
        19   -7.958814E-05
        20   -3.282603E-04
        21   -3.249147E-03
        22   -8.741809E-03
        23   -4.365876E-04
        24   -1.197671E-04
        25    4.217215E-05
        26    9.300704E-05
        27   -1.653156E-04
        28   -3.323271E-04
        29    3.525438E-03
        30    3.213333E-03
        31   -5.484806E-03
        32    1.617895E-01
        33    2.853060E-03
        34   -4.716305E-03
        35    1.384269E-01
        36    3.447458E-03
        37   -2.559327E-03
        38    9.247108E-02
        39    1.853396E-04
        40    1.375759E-03
        41    4.152507E-03
        42    1.796165E-04
        43    8.416977E-05
        44    4.360944E-04
        45   -3.493516E-03
        46    5.488191E-03
        47    1.308447E-04
        48    2.585370E-04
        49    3.799887E-06
        50    7.742330E-06
        51   -3.349629E-06
        52   -1.439364E-04
        53   -4.299971E-03
        54    9.049063E-04
        55   -9.620544E-04
        56    3.148455E-02
        57    7.328823E-04
        58   -8.924375E-04
        59    2.681243E-02
        60    5.586422E-04
        61   -2.202385E-03
        62    2.377408E-02
        63    3.295810E-04
        64   -7.949960E-03
        65    5.536650E-04
        66   -1.481041E-04
        67    2.872278E-04
        68    7.095357E-04
        69   -1.720166E-02
        70    1.218769E-03
        71   -3.490878E-04
        72    6.128738E-04
        73   -3.582613E-05
        74   -7.861748E-05
        75    1.420608E-04
        76    2.242903E-04
        77    2.265042E-03
        78   -3.192526E-03
        79    4.508394E-03
        80   -1.338727E-01
        81   -2.758638E-03
        82    3.985682E-03
        83   -1.165831E-01
        84   -4.303147E-03
        85    2.961248E-03
        86   -8.498793E-02
        87   -4.951308E-04
        88    6.840474E-04
        89   -8.474908E-03
        90   -2.685136E-04
        91   -1.726203E-04
        92   -1.150415E-03
        93   -2.123422E-04
        94   -2.093852E-02
        95   -6.840121E-04
        96   -3.599053E-04
        97    9.460138E-05
        98    2.063956E-04
        99   -3.615056E-04
       100   -3.266989E-04
       101   -2.027432E-03
       102   -4.485583E-03
       103    7.052119E-03
       104   -2.376942E-01
       105   -4.244375E-03
       106    6.400721E-03
       107   -2.111130E-01
       108    1.203360E-03
       109    4.219480E-03
       110   -1.338550E-01
       111    2.542509E-04
       112   -2.575059E-03
       113    2.854378E-03
       114    1.005847E-05
       115    1.818950E-04
       116    3.424227E-04
       117   -4.723856E-03
       118    3.314957E-03
       119    1.316423E-04
       120    2.129639E-04
       121   -1.135231E-05
       122   -2.520937E-05
       123    7.240503E-05
       124   -1.803448E-04
       125    6.133699E-03
       126   -8.033187E-04
       127    1.668172E-04
       128   -4.751497E-03
       129   -9.715613E-04
       130    2.146579E-04
       131   -1.108596E-02
       132   -4.702788E-04
       133   -3.093059E-03
       134   -1.324242E-03
       135    6.510869E-04
       136   -9.734551E-03
       137    4.960170E-03
       138   -5.374143E-05
       139    6.052570E-04
       140    1.178857E-03
       141   -1.980613E-02
       142    7.671064E-03
       143   -1.059392E-04
       144    1.224242E-03
       145    9.531727E-06
       146    2.180708E-05
       147   -2.349054E-05
       148   -1.782739E-04
       149    1.068147E-03
       150    4.521145E-03
       151   -2.809179E-03
       152    8.245276E-02
       153    3.711082E-03
       154   -2.291150E-03
       155    6.657184E-02
       156    3.389882E-03
       157   -2.474211E-03
       158    6.533526E-02
       159   -2.264467E-05
       160   -3.475177E-04
       161   -6.143249E-04
       162   -2.545204E-05
       163   -2.153765E-05
       164   -2.826713E-04
       165    1.306199E-03
       166   -3.470265E-03
       167   -6.920684E-05
       168   -1.889407E-04
       169   -3.292273E-05
       170   -7.176259E-05
       171    1.098884E-04
       172    2.022187E-04
       173   -4.207687E-03
       174   -2.025669E-03
       175    2.588448E-03
       176   -7.847032E-02
       177   -1.787874E-03
       178    2.473117E-03
       179   -7.420093E-02
       180   -1.177799E-03
       181    3.450260E-03
       182   -3.612105E-02
       183    4.895207E-05
       184    8.620543E-03
       185    6.940267E-03
       186    3.819461E-04
       187   -6.625375E-05
       188   -4.556698E-05
       189    1.936996E-02
       190    1.318164E-02
       191    8.346641E-04
       192   -3.312232E-04
       193    2.412767E-05
       194    5.288294E-05
       195   -8.183094E-05
       196   -2.435577E-04
       197    2.238778E-03
       198    1.545553E-03
       199   -2.079360E-03
       200    5.806347E-02
       201    1.394616E-03
       202   -1.853494E-03
       203    5.279349E-02
       204   -9.796897E-04
       205   -8.745490E-04
       206    2.198267E-02
       207   -4.014546E-04
       208    9.032301E-04
       209   -6.630519E-03
       210   -2.004664E-04
       211   -1.587851E-04
       212   -9.727920E-04
       213    9.250016E-04
       214   -1.711691E-02
       215   -4.967658E-04
       216   -3.993605E-04
       217   -4.322130E-06
       218   -8.766788E-06
       219   -4.489173E-06
       220    1.456976E-04
       221   -1.341377E-03
       222    3.671771E-03
       223   -5.278660E-03
       224    1.694816E-01
       225    3.159496E-03
       226   -4.558185E-03
       227    1.466672E-01
       228    2.871360E-03
       229   -3.473867E-03
       230    1.091579E-01
       231    1.481071E-04
       232   -3.112701E-03
       233    5.412326E-04
       234   -6.455311E-05
       235    1.274108E-04
       236   -6.824197E-05
       237    7.930252E-04
       238   -3.695610E-04
       239    1.667090E-06
       240   -2.267058E-05
       241    2.361589E-05
       242    5.270487E-05
       243   -1.043822E-04
       244    6.602189E-06
       245    1.654277E-03
       246    1.957207E-03
       247   -2.658218E-03
       248    7.748754E-02
       249    1.567079E-03
       250   -2.257436E-03
       251    6.713801E-02
       252    1.363487E-03
       253   -1.215587E-03
       254    4.980156E-02
       255   -3.060151E-04
       256    9.006693E-03
       257    7.296323E-04
       258    2.058644E-04
       259   -2.609238E-04
       260   -7.006152E-04
       261    1.815051E-02
       262   -2.734271E-04
       263    4.046914E-04
       264   -6.046809E-04
       265    7.785603E-05
       266    1.783708E-04
       267   -2.933449E-04
       268   -4.335741E-04
       269   -1.374049E-03
       270    3.558132E-03
       271   -4.535060E-03
       272    1.285661E-01
       273    3.111112E-03
       274   -3.993358E-03
       275    1.143463E-01
       276    2.812321E-03
       277   -3.190664E-03
       278    9.581163E-02
       279    2.065502E-05
       280    1.700571E-03
       281    1.730194E-03
       282    9.543947E-05
       283   -2.281656E-06
       284    2.267356E-04
       285    3.109307E-03
       286    6.469807E-03
       287    3.217402E-04
       288    1.402456E-05
       289   -2.708553E-05
       290   -6.085583E-05
       291    1.289938E-04
       292    4.368639E-05
       293   -2.216068E-05
       294    5.159172E-04
       295   -1.286477E-03
       296    3.929114E-02
       297    3.374928E-04
       298   -9.389173E-04
       299    2.954340E-02
       300    7.385786E-04
       301   -6.806482E-04
       302    2.638360E-02
       303    1.831222E-04
       304   -7.157532E-03
       305   -1.441187E-03
       306   -2.297185E-04
       307    2.314625E-04
       308    4.209934E-04
       309   -1.200376E-02
       310   -8.518597E-04
       311   -3.375635E-04
       312    3.911594E-04
       313    2.091598E-05
       314    4.635529E-05
       315   -9.814458E-05
       316   -9.011568E-06
       317    1.782779E-04
       318   -1.353014E-03
       319    2.279320E-03
       320   -7.532833E-02
       321   -1.301604E-03
       322    2.111045E-03
       323   -6.759412E-02
       324   -1.268563E-03
       325    1.804195E-03
       326   -6.779681E-02
       327    1.524656E-04
       328   -8.297791E-04
       329    2.196167E-03
       330    5.705123E-05
       331    8.924365E-05
       332    2.904204E-04
       333   -1.681752E-03
       334    4.383714E-03
       335    1.201154E-04
       336    1.293728E-04
       337   -5.784872E-06
       338   -1.181669E-05
       339    4.532965E-06
       340    1.250915E-04
       341    2.719846E-04
       342   -1.070067E-03
       343    1.479357E-03
       344   -4.673896E-02
       345   -9.457793E-04
       346    1.309863E-03
       347   -4.126879E-02
       348   -5.441846E-04
       349    1.180300E-04
       350   -1.801157E-02
       351   -2.013899E-04
       352   -1.200570E-03
       353   -4.430942E-03
       354   -1.770048E-04
       355   -3.929789E-05
       356   -1.802321E-04
       357   -5.946214E-03
       358   -7.141887E-03
       359   -3.651410E-04
       360    3.596055E-05
       361   -3.451827E-05
       362    6.580393E-05
       363    5.896721E-04
       364   -1.539164E-05
       365   -2.276263E-04
       366    6.794962E-03
       367   -1.016141E-04
       368   -2.062479E-04
       369   -9.646149E-04
       370    1.542880E-04
       371   -2.160686E-04
       372    6.851451E-03
       373    2.193265E-04
       374    4.079637E-04
       375    6.871048E-04
       376    1.883884E-04
       377   -2.448433E-04
       378    7.758415E-03
       379   -2.980855E-05
       380   -1.124587E-04
       381   -2.540351E-04
       382    4.855240E-05
       383   -7.117174E-05
       384    1.914704E-03
       385    9.169954E-05
       386    1.802921E-04
       387    1.466867E-04
       388    9.788946E-05
       389   -1.206323E-04
       390    4.025280E-03
       391   -8.268253E-05
       392   -1.442481E-04
       393   -1.730333E-04
       394    1.856577E-04
       395   -2.633618E-04
       396    8.184500E-03
       397   -6.941472E-05
       398   -1.300503E-04
       399   -1.862300E-04
       400   -3.435231E-05
       401    5.420798E-05
       402   -1.829065E-03
       403    8.842487E-05
       404    1.523179E-04
       405    4.531671E-05
       406    2.682228E-05
       407   -5.781721E-05
       408    1.562529E-03
       409    7.802438E-05
       410    1.271467E-04
       411    1.334316E-04
       412   -8.835164E-05
       413    1.255524E-04
       414   -4.190348E-03
 Sym= X
 Ene= -0.069022
 Spin= Alpha
 Occup= -0.069022
         1    2.364736E-05
         2    5.172579E-05
         3   -9.012139E-05
         4   -1.141771E-04
         5    9.514488E-04
         6   -2.583073E-03
         7    3.381578E-03
         8   -1.081381E-01
         9   -2.161101E-03
        10    2.917361E-03
        11   -9.309556E-02