
                                 *****************
                                 * O   R   C   A *
                                 *****************

                                            #,                                       
                                            ###                                      
                                            ####                                     
                                            #####                                    
                                            ######                                   
                                           ########,                                 
                                     ,,################,,,,,                         
                               ,,#################################,,                 
                          ,,##########################################,,             
                       ,#########################################, ''#####,          
                    ,#############################################,,   '####,        
                  ,##################################################,,,,####,       
                ,###########''''           ''''###############################       
              ,#####''   ,,,,##########,,,,          '''####'''          '####       
            ,##' ,,,,###########################,,,                        '##       
           ' ,,###''''                  '''############,,,                           
         ,,##''                                '''############,,,,        ,,,,,,###''
      ,#''                                            '''#######################'''  
     '                                                          ''''####''''         
             ,#######,   #######,   ,#######,      ##                                
            ,#'     '#,  ##    ##  ,#'     '#,    #''#        ,####,   ,####,        
            ##       ##  ##   ,#'  ##            #'  '#       #'       #'  '#        
            ##       ##  #######   ##           ,######,      #####,   #    #        
            '#,     ,#'  ##    ##  '#,     ,#' ,#      #,     #,   #   #,  ,#        
             '#######'   ##     ##  '#######'  #'      '#     '####' # '####'        



                #########################################################
                #                        -***-                          #
                #          Department of theory and spectroscopy        #
                #                                                       #
                #                      Frank Neese                      #
                #                                                       #
                #     Directorship, Architecture, Infrastructure        #
                #                    SHARK, DRIVERS                     #
                #        Core code/Algorithms in most modules           #
                #                                                       #
                #        Max Planck Institute fuer Kohlenforschung      #
                #                Kaiser Wilhelm Platz 1                 #
                #                 D-45470 Muelheim/Ruhr                 #
                #                      Germany                          #
                #                                                       #
                #                  All rights reserved                  #
                #                        -***-                          #
                #########################################################


                         Program Version 6.0.1  -  RELEASE   -


 With contributions from (in alphabetic order):
[Max-Planck-Institut fuer Kohlenforschung]                               
  Daniel Aravena         : Magnetic Suceptibility                        
  Michael Atanasov       : Ab Initio Ligand Field Theory (pilot matlab implementation)
  Alexander A. Auer      : GIAO ZORA, VPT2 properties, NMR spectrum      
  Ute Becker             : All parallelization in ORCA, NUMFREQ, NUMCALC 
  Giovanni Bistoni       : ED, misc. LED, open-shell LED, HFLD           
  Martin Brehm           : Molecular dynamics                            
  Dmytro Bykov           : pre 5.0 version of the SCF Hessian            
  Marcos Casanova-Páez   : Triplet and SCS-CIS(D). UHF-(DLPNO)-IP/EA/STEOM-CCSD. UHF-CVS-IP/STEOM-CCSD   
  Vijay G. Chilkuri      : MRCI spin determinant printing, contributions to CSF-ICE 
  Pauline Colinet        : FMM embedding                                 
  Dipayan Datta          : RHF DLPNO-CCSD density                        
  Achintya Kumar Dutta   : EOM-CC, STEOM-CC                              
  Nicolas Foglia         : Exact transition moments, OPA infrastructure, MCD improvements    
  Dmitry Ganyushin       : Spin-Orbit,Spin-Spin,Magnetic field MRCI      
  Miquel Garcia-Rates    : C-PCM and meta-GGA Hessian, CCSD/C-PCM, Gaussian charge scheme 
  Tiago L. C. Gouveia    : GS-ROHF, GS-ROCIS                             
  Yang Guo               : DLPNO-NEVPT2, F12-NEVPT2, CIM, IAO-localization        
  Andreas Hansen         : Spin unrestricted coupled pair/coupled cluster methods 
  Ingolf Harden          : AUTO-CI MPn and infrastructure                
  Benjamin Helmich-Paris : MC-RPA, TRAH-(SCF,CASSCF), AVAS, COSX integrals, SCF dyn. polar. 
  Lee Huntington         : MR-EOM, pCC                                   
  Robert Izsak           : Overlap fitted RIJCOSX, COSX-SCS-MP3, EOM     
  Riya Kayal             : Wick's Theorem for AUTO-CI, AUTO-CI UHF-CCSDT 
  Emily Kempfer          : AUTO-CI, RHF CISDT and CCSDT                  
  Christian Kollmar      : KDIIS, OOCD, Brueckner-CCSD(T), CCSD density, CASPT2, CASPT2-K, improved NEVPT2 
  Axel Koslowski         : Symmetry handling                             
  Simone Kossmann        : meta-GGA functionals, TD-DFT gradient, OOMP2, (MP2 Hessian; deprecated post 5.0) 
  Lucas Lang             : DCDCAS                                        
  Marvin Lechner         : AUTO-CI (C++ implementation), FIC-MRCC        
  Spencer Leger          : CASSCF response                               
  Dagmar Lenk            : GEPOL surface, SMD, ORCA-2-JSON               
  Dimitrios Liakos       : Extrapolation schemes; Compound Job, initial MDCI parallelization 
  Dimitrios Manganas     : Further ROCIS development; embedding schemes. LFT, Crystal Embedding 
  Dimitrios Pantazis     : SARC Basis sets                               
  Anastasios Papadopoulos: AUTO-CI, single reference methods and gradients 
  Taras Petrenko         : pre 6.0 DFT Hessian and TD-DFT gradient, (ASA, deprecated), ECA, 1-Electron XAS/XES, NRVS 
  Peter Pinski           : DLPNO-MP2, DLPNO-MP2 Gradient                 
  Christoph Reimann      : Effective Core Potentials                     
  Marius Retegan         : Local ZFS, SOC                                
  Christoph Riplinger    : Optimizer, TS searches, QM/MM, DLPNO-CCSD(T), (RO)-DLPNO pert. Triples 
  Michael Roemelt        : Original ROCIS implementation                 
  Masaaki Saitow         : Open-shell DLPNO-CCSD energy and density      
  Barbara Sandhoefer     : DKH picture change effects                    
  Kantharuban Sivalingam : CASSCF convergence/infrastructure, NEVPT2 and variants, FIC-MRCI 
  Bernardo de Souza      : ESD, SOC TD-DFT                               
  Georgi L. Stoychev     : AutoAux, RI-MP2 NMR, DLPNO-MP2 response, X2C  
  Van Anh Tran           : RI-MP2 g-tensors                              
  Willem Van den Heuvel  : Paramagnetic NMR                              
  Zikuan Wang            : NOTCH, Electric field optimization            
  Frank Wennmohs         : Technical directorship and infrastructure     
  Hang Xu                : AUTO-CI-Response properties                   
                                                                         
[FACCTs GmbH]                                                            
  Markus Bursch, Miquel Garcia-Rates, Christoph Riplinger, Bernardo de Souza, Georgi L. Stoychev 
                                                                 
  APM, Basis sets (HGBS, AHGBS, def-TZVP (Ac-Lr), def2-XVPD (La-Lu)), CI-OPT, improved COSX, DLPNO-Multilevel,           
  DOCKER, DRACO, updates on ESD, GOAT, IRC, LR-CPCM, MBIS, meta-GGA TD-DFT gradient, ML-optimized integration grids, 
  MM, NACMEs, nearIR, NEB, NEB-TS, NL-DFT gradient (VV10), 2- and 3-layer-ONIOM, interface openCOSMO-RS, QMMM,   
  Crystal-QMMM, SF, symmetry and pop. for TD-DFT, r2SCAN hybrids, SOLVATOR                                   
                                                                         
[Other institutions]                                                     
  V. Asgeirsson          : NEB                                           
  Christoph Bannwarth    : sTDA-DFT, sTD-DFT, PBEh-3c, B97-3c, D3        
  Sebastian Ehlert       : rSCAN, r2SCAN, r2SCAN-3c, D4, dhf basis sets  
  Marvin Friede          : D4 for Fr, Ra, Ac-Lr                          
  Lars Goerigk           : TD-DFT with DH, B97 family of functionals     
  Stefan Grimme          : VdW corrections, initial TS optimization, DFT functionals, gCP, sTDA/sTD-DF 
  Waldemar Hujo          : DFT-NL                                        
  H. Jonsson             : NEB                                           
  Holger Kruse           : gCP                                           
  Marcel Mueller         : wB97X-3c, vDZP basis set                      
  Hagen Neugebauer       : wr2SCAN                                       
  Tobias Risthaus        : range-separated hybrid DFT                    
  Lukas Wittmann         : regularized MP2, r2SCAN double-hybrids, wr2SCAN        
                                                                         
We gratefully acknowledge several colleagues who have allowed us to      
interface, adapt or use parts of their codes:                            
  Ed Valeev, F. Pavosevic, A. Kumar             : LibInt (2-el integral package), F12 methods 
  Garnet Chan, S. Sharma, J. Yang, R. Olivares  : DMRG                   
  Ulf Ekstrom                                   : XCFun DFT Library      
  Mihaly Kallay                                 : mrcc  (arbitrary order and MRCC methods)
  Frank Weinhold                                : gennbo (NPA and NBO analysis)           
  Simon Mueller                                 : openCOSMO-RS                            
  Christopher J. Cramer and Donald G. Truhlar   : smd solvation model                     
  S Lehtola, MJT Oliveira, MAL Marques          : LibXC Library                           
  Liviu Ungur et al                             : ANISO software                          


 Your calculation uses the libint2 library for the computation of 2-el integrals
 For citations please refer to: http://libint.valeyev.net

 Your ORCA version has been built with support for libXC version: 6.2.2
 For citations please refer to: https://libxc.gitlab.io

 This ORCA versions uses:
   CBLAS   interface :  Fast vector & matrix operations
   LAPACKE interface :  Fast linear algebra routines
   SCALAPACK package :  Parallel linear algebra routines
   Shared memory     :  Shared parallel matrices
   BLAS/LAPACK       :  OpenBLAS 0.3.27  USE64BITINT DYNAMIC_ARCH NO_AFFINITY Zen SINGLE_THREADED
        Core in use  :  Zen
   Copyright (c) 2011-2014, The OpenBLAS Project


Your calculation utilizes the semiempirical GFN2-xTB method
Please cite in your paper:
C. Bannwarth, Ehlert S., S. Grimme,  J. Chem. Theory Comput., 15, (2019), 1652.
   

================================================================================

================================================================================
                                        WARNINGS
                       Please study these warnings very carefully!
================================================================================

INFO   : Checking CIS options ...

WARNING: Geometry Optimization
  ===> : Switching off AutoStart
         For restart on a previous wavefunction, please use MOREAD

WARNING: Found dipole moment calculation with XTB calculation
  ===> : Switching off dipole moment calculation


================================================================================
                                       INPUT FILE
================================================================================
NAME = HBQ_ES-GOAT.inp
|  1> !XTB goat ddCOSMO(water)
|  2> 
|  3> %tddft
|  4>     NRoots 3
|  5>     IRoot 1
|  6> end 
|  7> 
|  8> * xyz 0 1
|  9> C  -3.06752287103923526601 -1.43435831473892316801 0.16984916817882181328
| 10> C  -2.46984533450219911899 -2.34966376558500211758 -0.69222369723679766373
| 11> C  -1.22430336777950676819 -2.09261104437477518658 -1.20538521801666220767
| 12> C  -2.40376764811373622166 -0.28447439797123563743 0.54276971993128886318
| 13> C  -1.09588432949153014029 -0.02233773009250381025 0.08193597148949569031
| 14> O  -3.06499636131998931532 0.57040068246234587601 1.39784780221665827504
| 15> C  -0.52336174692372872119 -0.93419695983867545586 -0.83692873392357169937
| 16> C  0.76244385364517219816 -0.66604818279777511236 -1.39074879959724762024
| 17> C  1.45839287757204361107 0.44321870546784064571 -1.05522825420540744545
| 18> C  -0.31959396252405442018 1.11525621578416700430 0.50281452880431842800
| 19> C  0.94354774532827268008 1.35469132015285720350 -0.09318823266313638887
| 20> N  -0.79144386387134035843 1.91077424136794582488 1.47132810841203309771
| 21> C  -0.09963388960183006127 2.95799889848734309794 1.83986283364681924013
| 22> C  1.13070834136383480129 3.31246038358829020254 1.28096215584141104316
| 23> C  1.65735358856684933393 2.49225515870674207974 0.31367380928346383362
| 24> C  -3.21548641801195644874 1.86390577745979468816 0.97633186289881723763
| 25> O  -3.09056141938650519307 2.20742174079780539842 -0.17496206761175769895
| 26> N  -3.63450496405364464891 2.66685482607118640175 1.97534963719386413850
| 27> C  -3.96032310653770913689 4.04031069660626496187 1.68472705073079964677
| 28> C  -3.72312196647545601280 2.25785698204989548898 3.35322717597892783203
| 29> H  -3.22182297654834748357 2.99425949469242924650 3.98544734201810513241
| 30> H  -3.24038555440540987362 1.29371135632447753494 3.47864658384662384094
| 31> H  -4.76891842531317866616 2.18238129113743184462 3.66620697425023678306
| 32> H  -3.84740263095191226128 4.19815380494793899402 0.61458211341507029690
| 33> H  -3.28970395525826697636 4.71582553978040497356 2.22229040731935123532
| 34> H  -4.99041375542383658370 4.25525939877253911447 1.97982086488619057896
| 35> H  -0.76600234977655190516 -2.77843727856407207710 -1.90285520831786492124
| 36> H  -4.06298997237291725781 -1.60341909569631879684 0.55051547792050858909
| 37> H  -3.00393122211439411728 -3.24557289232116907840 -0.97114644293215279802
| 38> H  1.16302990482835277852 -1.37389651997540784834 -2.10228950094499511536
| 39> H  2.42342803746063362169 0.65341336988140474862 -1.49476673302918494635
| 40> H  -0.54045512606199042072 3.55366622534108778098 2.62964013119329598211
| 41> H  1.64857512475566658772 4.19853645602888025934 1.61434428502218962898
| 42> H  2.61705775695450260088 2.70423362319696591882 -0.13807112168042084965
| 43> **                         ****END OF INPUT****
================================================================================

                       *****************************
                       * Geometry Optimization Run *
                       *****************************


                       *********************************
                       *              GOAT             *
                       * Global Optimization Algorithm *
                       *********************************

Geometry optimization settings:
Update method            Update   .... BFGS
Choice of coordinates    CoordSys .... (2022) Redundant Internals
Initial Hessian          InHess   .... Almloef's Model
Max. no of cycles        MaxIter  .... 102

Convergence Tolerances:
Energy Change            TolE     ....  5.0000e-06 Eh
Max. Gradient            TolMAXG  ....  3.0000e-04 Eh/bohr
RMS Gradient             TolRMSG  ....  1.0000e-04 Eh/bohr
Max. Displacement        TolMAXD  ....  4.0000e-03 bohr
RMS Displacement         TolRMSD  ....  2.0000e-03 bohr
Strict Convergence                .... True

------------------------------------------------------------------------------
                        ORCA OPTIMIZATION COORDINATE SETUP
------------------------------------------------------------------------------

The optimization will be done in redundant internal coordinates (2022)
Making redundant internal coordinates   ...  (2022 redundants) done
Evaluating the initial hessian          ...  (Almloef) done
Evaluating the coordinates              ...  done
Calculating the B-matrix                .... done
Calculating the G-matrix                .... done
Diagonalizing the G-matrix              .... done
Small eigenvalue found = 2.815e-03
Small eigenvalue found = 6.766e-03
Small eigenvalue found = 1.338e-02
Small eigenvalue found = 2.456e-02
The first mode is                       ....   77
The number of degrees of freedom        ....   96

    -----------------------------------------------------------------
                    Redundant Internal Coordinates


    -----------------------------------------------------------------
         Definition                    Initial Value    Approx d2E/dq
    -----------------------------------------------------------------
      1. B(C   1,C   0)                  1.3922         0.619807   
      2. B(C   2,C   1)                  1.3714         0.668938   
      3. B(C   3,C   0)                  1.3791         0.650360   
      4. B(C   4,C   3)                  1.4113         0.577865   
      5. B(O   5,C   3)                  1.3781         0.584577   
      6. B(C   6,C   4)                  1.4155         0.568968   
      7. B(C   6,C   2)                  1.4032         0.595197   
      8. B(C   7,C   6)                  1.4255         0.548498   
      9. B(C   8,C   7)                  1.3518         0.718898   
     10. B(C   9,C   4)                  1.4401         0.519767   
     11. B(C  10,C   9)                  1.4171         0.565662   
     12. B(C  10,C   8)                  1.4217         0.556014   
     13. B(N  11,C   9)                  1.3392         0.674360   
     14. B(C  12,N  11)                  1.3081         0.756064   
     15. B(C  13,C  12)                  1.3971         0.608818   
     16. B(C  14,C  13)                  1.3732         0.664518   
     17. B(C  14,C  10)                  1.4032         0.595115   
     18. B(C  15,O   5)                  1.3688         0.605031   
     19. B(O  16,C  15)                  1.2079         1.092350   
     20. B(N  17,C  15)                  1.3485         0.651857   
     21. B(C  18,N  17)                  1.4412         0.463683   
     22. B(C  19,N  17)                  1.4400         0.465650   
     23. B(H  20,C  19)                  1.0924         0.356967   
     24. B(H  21,C  19)                  1.0855         0.366083   
     25. B(H  22,C  19)                  1.0942         0.354545   
     26. B(H  23,C  18)                  1.0876         0.363288   
     27. B(H  24,C  18)                  1.0932         0.355928   
     28. B(H  25,C  18)                  1.0929         0.356320   
     29. B(H  26,C   2)                  1.0802         0.373281   
     30. B(H  27,C   0)                  1.0791         0.374821   
     31. B(H  28,C   1)                  1.0797         0.374021   
     32. B(H  29,C   7)                  1.0807         0.372681   
     33. B(H  30,C   8)                  1.0810         0.372137   
     34. B(H  31,C  12)                  1.0830         0.369479   
     35. B(H  32,C  13)                  1.0791         0.374810   
     36. B(H  33,C  14)                  1.0817         0.371271   
     37. A(C   1,C   0,C   3)          120.5979         0.437795   
     38. A(C   3,C   0,H  27)          118.6359         0.358210   
     39. A(C   1,C   0,H  27)          120.7622         0.355294   
     40. A(C   2,C   1,H  28)          120.5398         0.359801   
     41. A(C   0,C   1,C   2)          119.8927         0.440026   
     42. A(C   0,C   1,H  28)          119.5485         0.355166   
     43. A(C   1,C   2,H  26)          120.5258         0.359680   
     44. A(C   1,C   2,C   6)          120.6746         0.436822   
     45. A(C   6,C   2,H  26)          118.7995         0.352618   
     46. A(C   4,C   3,O   5)          122.1440         0.421363   
     47. A(C   0,C   3,C   4)          120.8387         0.432308   
     48. A(C   0,C   3,O   5)          117.0056         0.430374   
     49. A(C   3,C   4,C   9)          123.4263         0.415325   
     50. A(C   3,C   4,C   6)          117.8503         0.422074   
     51. A(C   6,C   4,C   9)          118.7228         0.414181   
     52. A(C   3,O   5,C  15)          116.6088         0.422073   
     53. A(C   4,C   6,C   7)          119.7274         0.418165   
     54. A(C   2,C   6,C   7)          120.2563         0.421540   
     55. A(C   2,C   6,C   4)          120.0153         0.424309   
     56. A(C   6,C   7,H  29)          117.8379         0.347693   
     57. A(C   6,C   7,C   8)          121.4882         0.436061   
     58. A(C   8,C   7,H  29)          120.6691         0.364028   
     59. A(C   7,C   8,H  30)          121.2124         0.363938   
     60. A(C  10,C   8,H  30)          118.2765         0.348405   
     61. A(C   7,C   8,C  10)          120.5031         0.437131   
     62. A(C   4,C   9,C  10)          119.4098         0.413752   
     63. A(C  10,C   9,N  11)          121.1888         0.430632   
     64. A(C   4,C   9,N  11)          119.3846         0.424152   
     65. A(C   9,C  10,C  14)          117.9340         0.423857   
     66. A(C   8,C  10,C  14)          122.1204         0.422556   
     67. A(C   8,C  10,C   9)          119.9378         0.418746   
     68. A(C   9,N  11,C  12)          119.5357         0.450817   
     69. A(N  11,C  12,H  31)          115.5002         0.364357   
     70. A(N  11,C  12,C  13)          123.7916         0.445474   
     71. A(C  13,C  12,H  31)          120.7075         0.353358   
     72. A(C  12,C  13,H  32)          120.4894         0.354216   
     73. A(C  12,C  13,C  14)          117.9046         0.438083   
     74. A(C  14,C  13,H  32)          121.6019         0.359524   
     75. A(C  10,C  14,H  33)          119.2811         0.352288   
     76. A(C  10,C  14,C  13)          119.5608         0.436290   
     77. A(C  13,C  14,H  33)          121.1573         0.358944   
     78. A(O  16,C  15,N  17)          124.6751         0.479232   
     79. A(O   5,C  15,N  17)          111.6376         0.430388   
     80. A(O   5,C  15,O  16)          123.4287         0.472703   
     81. A(C  18,N  17,C  19)          116.7254         0.386870   
     82. A(C  15,N  17,C  19)          123.9787         0.410743   
     83. A(C  15,N  17,C  18)          119.2307         0.410435   
     84. A(H  24,C  18,H  25)          108.8991         0.289828   
     85. A(H  23,C  18,H  25)          109.5725         0.290760   
     86. A(N  17,C  18,H  25)          110.2477         0.333496   
     87. A(H  23,C  18,H  24)          109.2979         0.290710   
     88. A(N  17,C  18,H  24)          110.5515         0.333435   
     89. A(N  17,C  18,H  23)          108.2556         0.334570   
     90. A(H  21,C  19,H  22)          109.3120         0.290882   
     91. A(H  20,C  19,H  22)          108.6358         0.289733   
     92. A(N  17,C  19,H  22)          110.6150         0.333454   
     93. A(H  20,C  19,H  21)          109.1357         0.291193   
     94. A(N  17,C  19,H  21)          109.6000         0.335232   
     95. A(N  17,C  19,H  20)          109.5160         0.333831   
     96. D(H  28,C   1,C   0,C   3)    179.8504         0.026582   
     97. D(C   2,C   1,C   0,C   3)     -1.7290         0.026582   
     98. D(H  28,C   1,C   0,H  27)     -0.8861         0.026582   
     99. D(C   2,C   1,C   0,H  27)    177.5346         0.026582   
    100. D(C   6,C   2,C   1,C   0)      2.0848         0.031288   
    101. D(H  26,C   2,C   1,C   0)   -177.7888         0.031288   
    102. D(C   6,C   2,C   1,H  28)   -179.5104         0.031288   
    103. D(H  26,C   2,C   1,H  28)      0.6160         0.031288   
    104. D(O   5,C   3,C   0,C   1)    179.9347         0.029452   
    105. D(C   4,C   3,C   0,H  27)    179.4349         0.029452   
    106. D(C   4,C   3,C   0,C   1)     -1.2861         0.029452   
    107. D(O   5,C   3,C   0,H  27)      0.6557         0.029452   
    108. D(C   6,C   4,C   3,O   5)   -177.4738         0.022934   
    109. D(C   9,C   4,C   3,C   0)   -175.8837         0.022934   
    110. D(C   9,C   4,C   3,O   5)      2.8317         0.022934   
    111. D(C   6,C   4,C   3,C   0)      3.8108         0.022934   
    112. D(C  15,O   5,C   3,C   4)     56.9823         0.024877   
    113. D(C  15,O   5,C   3,C   0)   -124.2556         0.024877   
    114. D(C   7,C   6,C   4,C   9)     -4.0956         0.022203   
    115. D(C   7,C   6,C   4,C   3)    176.1950         0.022203   
    116. D(C   2,C   6,C   4,C   9)    176.2789         0.022203   
    117. D(C   2,C   6,C   4,C   3)     -3.4304         0.022203   
    118. D(C   7,C   6,C   2,H  26)      0.7944         0.024401   
    119. D(C   7,C   6,C   2,C   1)   -179.0813         0.024401   
    120. D(C   4,C   6,C   2,H  26)   -179.5822         0.024401   
    121. D(C   4,C   6,C   2,C   1)      0.5421         0.024401   
    122. D(H  29,C   7,C   6,C   4)   -178.9518         0.020577   
    123. D(H  29,C   7,C   6,C   2)      0.6728         0.020577   
    124. D(C   8,C   7,C   6,C   4)      0.2546         0.020577   
    125. D(C   8,C   7,C   6,C   2)    179.8792         0.020577   
    126. D(C  10,C   8,C   7,C   6)      2.4341         0.036568   
    127. D(H  30,C   8,C   7,H  29)      0.5761         0.036568   
    128. D(H  30,C   8,C   7,C   6)   -178.6080         0.036568   
    129. D(C  10,C   8,C   7,H  29)   -178.3818         0.036568   
    130. D(N  11,C   9,C   4,C   6)   -173.2524         0.018424   
    131. D(N  11,C   9,C   4,C   3)      6.4397         0.018424   
    132. D(C  10,C   9,C   4,C   6)      5.2774         0.018424   
    133. D(C  10,C   9,C   4,C   3)   -175.0306         0.018424   
    134. D(C  14,C  10,C   9,N  11)     -3.2180         0.021935   
    135. D(C  14,C  10,C   9,C   4)    178.2796         0.021935   
    136. D(C   8,C  10,C   9,N  11)    175.7900         0.021935   
    137. D(C   8,C  10,C   9,C   4)     -2.7124         0.021935   
    138. D(C  14,C  10,C   8,H  30)     -1.1942         0.021165   
    139. D(C  14,C  10,C   8,C   7)    177.7938         0.021165   
    140. D(C   9,C  10,C   8,H  30)    179.8406         0.021165   
    141. D(C   9,C  10,C   8,C   7)     -1.1713         0.021165   
    142. D(C  12,N  11,C   9,C  10)      2.6753         0.033821   
    143. D(C  12,N  11,C   9,C   4)   -178.8219         0.033821   
    144. D(H  31,C  12,N  11,C   9)   -179.8329         0.043491   
    145. D(C  13,C  12,N  11,C   9)     -0.1383         0.043491   
    146. D(H  32,C  13,C  12,H  31)     -1.3684         0.025594   
    147. D(H  32,C  13,C  12,N  11)    178.9522         0.025594   
    148. D(C  14,C  13,C  12,H  31)    177.9079         0.025594   
    149. D(C  14,C  13,C  12,N  11)     -1.7715         0.025594   
    150. D(H  33,C  14,C  13,H  32)      0.6886         0.030845   
    151. D(H  33,C  14,C  13,C  12)   -178.5793         0.030845   
    152. D(C  10,C  14,C  13,H  32)   -179.6382         0.030845   
    153. D(C  10,C  14,C  13,C  12)      1.0940         0.030845   
    154. D(H  33,C  14,C  10,C   9)   -179.0712         0.024394   
    155. D(H  33,C  14,C  10,C   8)      1.9438         0.024394   
    156. D(C  13,C  14,C  10,C   9)      1.2493         0.024394   
    157. D(C  13,C  14,C  10,C   8)   -177.7356         0.024394   
    158. D(O  16,C  15,O   5,C   3)     17.5778         0.026765   
    159. D(N  17,C  15,O   5,C   3)   -168.0248         0.026765   
    160. D(C  19,N  17,C  15,O  16)   -177.2068         0.034695   
    161. D(C  19,N  17,C  15,O   5)      8.4791         0.034695   
    162. D(C  18,N  17,C  15,O  16)     -0.2438         0.034695   
    163. D(C  18,N  17,C  15,O   5)   -174.5579         0.034695   
    164. D(H  25,C  18,N  17,C  15)    122.5948         0.018359   
    165. D(H  24,C  18,N  17,C  19)     60.2393         0.018359   
    166. D(H  24,C  18,N  17,C  15)   -116.9412         0.018359   
    167. D(H  23,C  18,N  17,C  19)    179.9298         0.018359   
    168. D(H  23,C  18,N  17,C  15)      2.7492         0.018359   
    169. D(H  22,C  19,N  17,C  15)   -110.4393         0.018518   
    170. D(H  21,C  19,N  17,C  18)   -166.8736         0.018518   
    171. D(H  21,C  19,N  17,C  15)     10.1592         0.018518   
    172. D(H  20,C  19,N  17,C  18)    -47.1783         0.018518   
    173. D(H  20,C  19,N  17,C  15)    129.8545         0.018518   
    -----------------------------------------------------------------

Number of atoms                         .... 34
Number of degrees of freedom            .... 173


         *************************************************************
         *                GEOMETRY OPTIMIZATION CYCLE   1            *
         *************************************************************
---------------------------------
CARTESIAN COORDINATES (ANGSTROEM)
---------------------------------
  C    -3.067523   -1.434358    0.169849
  C    -2.469845   -2.349664   -0.692224
  C    -1.224303   -2.092611   -1.205385
  C    -2.403768   -0.284474    0.542770
  C    -1.095884   -0.022338    0.081936
  O    -3.064996    0.570401    1.397848
  C    -0.523362   -0.934197   -0.836929
  C     0.762444   -0.666048   -1.390749
  C     1.458393    0.443219   -1.055228
  C    -0.319594    1.115256    0.502815
  C     0.943548    1.354691   -0.093188
  N    -0.791444    1.910774    1.471328
  C    -0.099634    2.957999    1.839863
  C     1.130708    3.312460    1.280962
  C     1.657354    2.492255    0.313674
  C    -3.215486    1.863906    0.976332
  O    -3.090561    2.207422   -0.174962
  N    -3.634505    2.666855    1.975350
  C    -3.960323    4.040311    1.684727
  C    -3.723122    2.257857    3.353227
  H    -3.221823    2.994259    3.985447
  H    -3.240386    1.293711    3.478647
  H    -4.768918    2.182381    3.666207
  H    -3.847403    4.198154    0.614582
  H    -3.289704    4.715826    2.222290
  H    -4.990414    4.255259    1.979821
  H    -0.766002   -2.778437   -1.902855
  H    -4.062990   -1.603419    0.550515
  H    -3.003931   -3.245573   -0.971146
  H     1.163030   -1.373897   -2.102290
  H     2.423428    0.653413   -1.494767
  H    -0.540455    3.553666    2.629640
  H     1.648575    4.198536    1.614344
  H     2.617058    2.704234   -0.138071

----------------------------
CARTESIAN COORDINATES (A.U.)
----------------------------
  NO LB    ZA    FRAG    MASS        X           Y           Z
   0 C   6.0000    1    12.011   -5.796778   -2.710544    0.320968
   1 C   6.0000    1    12.011   -4.667331   -4.440221   -1.308113
   2 C   6.0000    1    12.011   -2.313598   -3.954462   -2.277848
   3 C   6.0000    1    12.011   -4.542463   -0.537579    1.025686
   4 C   6.0000    1    12.011   -2.070921   -0.042212    0.154837
   5 O   8.0000    1    15.999   -5.792004    1.077901    2.641550
   6 C   6.0000    1    12.011   -0.989010   -1.765376   -1.581566
   7 C   6.0000    1    12.011    1.440810   -1.258649   -2.628134
   8 C   6.0000    1    12.011    2.755963    0.837562   -1.994092
   9 C   6.0000    1    12.011   -0.603945    2.107529    0.950182
  10 C   6.0000    1    12.011    1.783047    2.559996   -0.176100
  11 N   7.0000    1    14.007   -1.495612    3.610840    2.780407
  12 C   6.0000    1    12.011   -0.188281    5.589808    3.476837
  13 C   6.0000    1    12.011    2.136729    6.259643    2.420668
  14 C   6.0000    1    12.011    3.131944    4.709680    0.592758
  15 C   6.0000    1    12.011   -6.076389    3.522271    1.845000
  16 O   8.0000    1    15.999   -5.840315    4.171423   -0.330630
  17 N   7.0000    1    14.007   -6.868219    5.039625    3.732870
  18 C   6.0000    1    12.011   -7.483926    7.635081    3.183673
  19 C   6.0000    1    12.011   -7.035681    4.266731    6.336681
  20 H   1.0000    1     1.008   -6.088363    5.658330    7.531404
  21 H   1.0000    1     1.008   -6.123441    2.444760    6.573689
  22 H   1.0000    1     1.008   -9.011950    4.124103    6.928127
  23 H   1.0000    1     1.008   -7.270537    7.933361    1.161392
  24 H   1.0000    1     1.008   -6.216640    8.911619    4.199520
  25 H   1.0000    1     1.008   -9.430515    8.041275    3.741319
  26 H   1.0000    1     1.008   -1.447535   -5.250486   -3.595875
  27 H   1.0000    1     1.008   -7.677938   -3.030023    1.040323
  28 H   1.0000    1     1.008   -5.676607   -6.133244   -1.835201
  29 H   1.0000    1     1.008    2.197808   -2.596288   -3.972751
  30 H   1.0000    1     1.008    4.579615    1.234772   -2.824700
  31 H   1.0000    1     1.008   -1.021312    6.715456    4.969300
  32 H   1.0000    1     1.008    3.115355    7.934084    3.050669
  33 H   1.0000    1     1.008    4.945522    5.110261   -0.260917

      -----------------------------------------------------------      
     |                   =====================                   |     
     |                           x T B                           |     
     |                   =====================                   |     
     |                         S. Grimme                         |     
     |          Mulliken Center for Theoretical Chemistry        |     
     |                    University of Bonn                     |     
      -----------------------------------------------------------      

   * xtb version 6.7.1 (edcfbbe) compiled by 'albert@albert-system' on 2024-07-22

   xtb is free software: you can redistribute it and/or modify it under
   the terms of the GNU Lesser General Public License as published by
   the Free Software Foundation, either version 3 of the License, or
   (at your option) any later version.
   
   xtb is distributed in the hope that it will be useful,
   but WITHOUT ANY WARRANTY; without even the implied warranty of
   MERCHANTABILITY or FITNESS FOR A PARTICULAR PURPOSE.  See the
   GNU Lesser General Public License for more details.
   
   Cite this work as:
   * C. Bannwarth, E. Caldeweyher, S. Ehlert, A. Hansen, P. Pracht,
     J. Seibert, S. Spicher, S. Grimme, WIREs Comput. Mol. Sci., 2020, 11,
     e01493. DOI: 10.1002/wcms.1493
   
   for GFN2-xTB:
   * C. Bannwarth, S. Ehlert and S. Grimme., J. Chem. Theory Comput., 2019,
     15, 1652-1671. DOI: 10.1021/acs.jctc.8b01176
   for GFN1-xTB:
   * S. Grimme, C. Bannwarth, P. Shushkov, J. Chem. Theory Comput., 2017,
     13, 1989-2009. DOI: 10.1021/acs.jctc.7b00118
   for GFN0-xTB:
   * P. Pracht, E. Caldeweyher, S. Ehlert, S. Grimme, ChemRxiv, 2019, preprint.
     DOI: 10.26434/chemrxiv.8326202.v1
   for GFN-FF:
   * S. Spicher and S. Grimme, Angew. Chem. Int. Ed., 2020, 59, 15665-15673.
     DOI: 10.1002/anie.202004239
   
   for ALPB and GBSA implicit solvation:
   * S. Ehlert, M. Stahn, S. Spicher, S. Grimme, J. Chem. Theory Comput.,
     2021, 17, 4250-4261. DOI: 10.1021/acs.jctc.1c00471
   
   for ddCOSMO and CPCM-X implicit solvation:
   * M. Stahn, S. Ehlert, S. Grimme, J. Phys. Chem. A,
     2023, XX, XXXX-XXXX. DOI: 10.1021/acs.jpca.3c04382
   
   for DFT-D4:
   * E. Caldeweyher, C. Bannwarth and S. Grimme, J. Chem. Phys., 2017,
     147, 034112. DOI: 10.1063/1.4993215
   * E. Caldeweyher, S. Ehlert, A. Hansen, H. Neugebauer, S. Spicher,
     C. Bannwarth and S. Grimme, J. Chem. Phys., 2019, 150, 154122.
     DOI: 10.1063/1.5090222
   * E. Caldeweyher, J.-M. Mewes, S. Ehlert and S. Grimme, Phys. Chem. Chem. Phys.
     2020, 22, 8499-8512. DOI: 10.1039/D0CP00502A
   
   for sTDA-xTB:
   * S. Grimme and C. Bannwarth, J. Chem. Phys., 2016, 145, 054103.
     DOI: 10.1063/1.4959605
   
   in the mass-spec context:
   * V. Asgeirsson, C. Bauer and S. Grimme, Chem. Sci., 2017, 8, 4879.
     DOI: 10.1039/c7sc00601b
   * J. Koopman and S. Grimme, ACS Omega 2019, 4, 12, 15120-15133.
     DOI: 10.1021/acsomega.9b02011
   
   for metadynamics refer to:
   * S. Grimme, J. Chem. Theory Comput., 2019, 155, 2847-2862
     DOI: 10.1021/acs.jctc.9b00143
   
   for SPH calculations refer to:
   * S. Spicher and S. Grimme, J. Chem. Theory Comput., 2021, 17, 1701-1714
     DOI: 10.1021/acs.jctc.0c01306
   
   for ONIOM refer to:
   * C. Plett, A. Katbashev, S. Ehlert, S. Grimme, M. Bursch,
     Phys. Chem. Chem. Phys., 2023, 25, 17860-17868. DOI: 10.1039/D3CP02178E
   
   for DIPRO refer to:
   * J. Kohn, N. Gildemeister, S. Grimme, D. Fazzi, A. Hansen,
     J. Chem. Phys., 2023, just accepted.
   
   for PTB refer to:
   * S. Grimme, M. Mueller, A. Hansen, J. Chem. Phys., 2023, 158, 124111.
     DOI: 10.1063/5.0137838
   
   with help from (in alphabetical order)
   P. Atkinson, C. Bannwarth, F. Bohle, G. Brandenburg, E. Caldeweyher
   M. Checinski, S. Dohm, S. Ehlert, S. Ehrlich, I. Gerasimov, C. Hölzer
   A. Katbashev, J. Kohn, J. Koopman, C. Lavigne, S. Lehtola, F. März, M. Müller,
   F. Musil, H. Neugebauer, J. Pisarek, C. Plett, P. Pracht, F. Pultar,
   J. Seibert, P. Shushkov, S. Spicher, M. Stahn, M. Steiner, T. Strunk,
   J. Stückrath, T. Rose, and J. Unsleber
   
 * started run on 2024/12/21 at 19:12:51.302     
   ID    Z sym.   atoms
    1    6 C      1-5, 7-11, 13-16, 19, 20
    2    8 O      6, 17
    3    7 N      12, 18
    4    1 H      21-34

           -------------------------------------------------
          |                Calculation Setup                |
           -------------------------------------------------

          program call               : /home/mmaximo/orca_6_0_1_avx2/otool_xtb HBQ_ES-GOAT_XTB.xyz --grad -c 0 -u 0 -P 1 --namespace HBQ_ES-GOAT --input HBQ_ES-GOAT_XTB.input.tmp --cosmo WATER --acc 0.200000
          hostname                   : n01
          calculation namespace      : HBQ_ES-GOAT
          coordinate file            : HBQ_ES-GOAT_XTB.xyz
          omp threads                :                     1


           -------------------------------------------------
          |                 G F N 2 - x T B                 |
           -------------------------------------------------

        Reference                      10.1021/acs.jctc.8b01176
      * Hamiltonian:
        H0-scaling (s, p, d)           1.850000    2.230000    2.230000
        zeta-weighting                 0.500000
      * Dispersion:
        s8                             2.700000
        a1                             0.520000
        a2                             5.000000
        s9                             5.000000
      * Repulsion:
        kExp                           1.500000    1.000000
        rExp                           1.000000
      * Coulomb:
        alpha                          2.000000
        third order                    shell-resolved
        anisotropic                    true
        a3                             3.000000
        a5                             4.000000
        cn-shift                       1.200000
        cn-exp                         4.000000
        max-rad                        5.000000

      * Solvation model:               COSMO
        Solvent                        WATER
        Parameter file                 internal GFN2-xTB/ALPB+COSMO
        Dielectric constant                8.0200E+01
        Reference state                gsolv [1 M gas/solution]
        Free energy shift                  0.0000E+00 Eh       0.0000E+00 kcal/mol
        Temperature                        2.9815E+02 K
        Density                            1.0000E+00 kg/L
        Solvent mass                       1.8000E+01 g/mol
        vdW Radii scaling                  1.0000E+00
        Surface tension                    1.0000E-05 Eh       1.5569E+01 dyn/cm
        Grid points                               230 per atom

          ...................................................
          :                      SETUP                      :
          :.................................................:
          :  # basis functions                  94          :
          :  # atomic orbitals                  94          :
          :  # shells                           54          :
          :  # electrons                       100          :
          :  max. iterations                   250          :
          :  Hamiltonian                  GFN2-xTB          :
          :  restarted?                      false          :
          :  GBSA solvation                   true          :
          :  PC potential                    false          :
          :  electronic temp.          300.0000000     K    :
          :  accuracy                    0.2000000          :
          :  -> integral cutoff          0.3198970E+02      :
          :  -> integral neglect         0.2000000E-08      :
          :  -> SCF convergence          0.2000000E-06 Eh   :
          :  -> wf. convergence          0.2000000E-04 e    :
          :  Broyden damping             0.4000000          :
          :  net charge                          0          :
          :  unpaired electrons                  0          :
          ...................................................

 iter      E             dE          RMSdq      gap      omega  full diag
   1    -56.1834794 -0.561835E+02  0.425E+00    2.77       0.0  T
   2    -56.2887536 -0.105274E+00  0.248E+00    2.59       1.0  T
   3    -56.2659663  0.227873E-01  0.119E+00    2.73       1.0  T
   4    -56.2944762 -0.285099E-01  0.264E-01    2.51       1.0  T
   5    -56.2939463  0.529959E-03  0.822E-02    2.55       1.0  T
   6    -56.2941540 -0.207755E-03  0.400E-02    2.55       1.0  T
   7    -56.2940622  0.917810E-04  0.151E-02    2.55       1.1  T
   8    -56.2940450  0.172240E-04  0.731E-03    2.55       2.3  T
   9    -56.2939774  0.675768E-04  0.267E-03    2.56       6.4  T
  10    -56.2939700  0.738832E-05  0.149E-03    2.56      11.5  T
  11    -56.2939605  0.952311E-05  0.658E-04    2.56      26.1  T
  12    -56.2939566  0.393744E-05  0.268E-04    2.56      63.9  T
  13    -56.2939567 -0.150530E-06  0.146E-04    2.56     117.2  T
  14    -56.2939573 -0.552963E-06  0.425E-05    2.56     403.5  T
  15    -56.2939573 -0.388818E-07  0.221E-05    2.56     776.2  T

   *** convergence criteria satisfied after 15 iterations ***

         #    Occupation            Energy/Eh            Energy/eV
      -------------------------------------------------------------
         1        2.0000           -0.7388181             -20.1043
       ...           ...                  ...                  ...
        44        2.0000           -0.4321583             -11.7596
        45        2.0000           -0.4251325             -11.5684
        46        2.0000           -0.4229411             -11.5088
        47        2.0000           -0.4041475             -10.9974
        48        2.0000           -0.3921326             -10.6705
        49        2.0000           -0.3857524             -10.4969
        50        2.0000           -0.3728168             -10.1449 (HOMO)
        51                         -0.2789052              -7.5894 (LUMO)
        52                         -0.2666915              -7.2570
        53                         -0.2299322              -6.2568
        54                         -0.2059432              -5.6040
        55                         -0.1889138              -5.1406
       ...                                ...                  ...
        94                          0.6989199              19.0186
      -------------------------------------------------------------
                  HL-Gap            0.0939116 Eh            2.5555 eV
             Fermi-level           -0.3258610 Eh           -8.8671 eV

 SCC (total)                   0 d,  0 h,  0 min,  0.717 sec
 SCC setup                      ...        0 min,  0.012 sec (  1.644%)
 Dispersion                     ...        0 min,  0.002 sec (  0.222%)
 classical contributions        ...        0 min,  0.000 sec (  0.008%)
 integral evaluation            ...        0 min,  0.011 sec (  1.470%)
 iterations                     ...        0 min,  0.640 sec ( 89.279%)
 molecular gradient             ...        0 min,  0.042 sec (  5.893%)
 printout                       ...        0 min,  0.011 sec (  1.482%)

         :::::::::::::::::::::::::::::::::::::::::::::::::::::
         ::                     SUMMARY                     ::
         :::::::::::::::::::::::::::::::::::::::::::::::::::::
         :: total energy             -55.440102333490 Eh    ::
         :: total w/o Gsasa/hb       -55.437110072939 Eh    ::
         :: gradient norm              0.039414911221 Eh/a0 ::
         :: HOMO-LUMO gap              2.555463691348 eV    ::
         ::.................................................::
         :: SCC energy               -56.293575592947 Eh    ::
         :: -> isotropic ES            0.087001972302 Eh    ::
         :: -> anisotropic ES         -0.004710902151 Eh    ::
         :: -> anisotropic XC          0.025937088774 Eh    ::
         :: -> dispersion             -0.040368330567 Eh    ::
         :: -> Gsolv                  -0.021600564210 Eh    ::
         ::    -> Gelec               -0.018608303659 Eh    ::
         ::    -> Gsasa               -0.002992260551 Eh    ::
         ::    -> Ghb                  0.000000000000 Eh    ::
         ::    -> Gshift               0.000000000000 Eh    ::
         :: repulsion energy           0.853473259457 Eh    ::
         :: add. restraining           0.000000000000 Eh    ::
         :: total charge               0.000000000000 e     ::
         :::::::::::::::::::::::::::::::::::::::::::::::::::::


Property printout bound to 'properties.out'

           -------------------------------------------------
          | TOTAL ENERGY              -55.440102333490 Eh   |
          | GRADIENT NORM               0.039414911221 Eh/α |
          | HOMO-LUMO GAP               2.555463691348 eV   |
           -------------------------------------------------

------------------------------------------------------------------------
 * finished run on 2024/12/21 at 19:12:52.180     
------------------------------------------------------------------------
 total:
 * wall-time:     0 d,  0 h,  0 min,  0.865 sec
 *  cpu-time:     0 d,  0 h,  0 min,  0.665 sec
 * ratio c/w:     0.768 speedup
 SCF:
 * wall-time:     0 d,  0 h,  0 min,  0.726 sec
 *  cpu-time:     0 d,  0 h,  0 min,  0.650 sec
 * ratio c/w:     0.895 speedup


-------------------------   --------------------
FINAL SINGLE POINT ENERGY       -55.440102333490
-------------------------   --------------------


-------------
DIPOLE MOMENT
-------------
                                X             Y             Z
Total Dipole Moment    :      0.73500       0.08600       1.03600
                        -----------------------------------------
Magnitude (a.u.)       :      1.27315
Magnitude (Debye)      :      3.23610

------------------------------------------------------------------------------
                         ORCA GEOMETRY RELAXATION STEP
------------------------------------------------------------------------------

Reading the OPT-File                    .... done
Getting information on internals        .... done
Copying old internal coords+grads       .... done
Making the new internal coordinates     .... (2022 redundants) done
Validating the new internal coordinates .... (2022 redundants) done
Calculating the B-matrix                .... done
Calculating the G,G- and P matrices     .... done
Transforming gradient to internals      .... done
Projecting the internal gradient        .... done
Number of atoms                         ....  34
Number of internal coordinates          .... 173
Current Energy                          ....   -55.440102333 Eh
Current gradient norm                   ....     0.039414911 Eh/bohr
Maximum allowed component of the step   ....  0.300
Current trust radius                    ....  0.300
Evaluating the initial hessian          ....  (Almloef) done
Projecting the Hessian                  .... done
Forming the augmented Hessian           .... done
Diagonalizing the augmented Hessian     .... done
Last element of RFO vector              ....  0.997647193
Lowest eigenvalues of augmented Hessian:
 -0.000799913  0.018360067  0.018518459  0.020841682  0.021318751
Length of the computed step             ....  0.068718803
The final length of the internal step   ....  0.068718803
Converting the step to Cartesian space:
 Initial RMS(Int)=    0.0052245939
Transforming coordinates:
 Iter   0:  RMS(Cart)=    0.0514191394 RMS(Int)=    0.4772090532
done
Storing new coordinates                 .... done

                                .--------------------.
          ----------------------|Geometry convergence|-------------------------
          Item                value                   Tolerance       Converged
          ---------------------------------------------------------------------
          RMS gradient        0.0018197967            0.0001000000      NO
          MAX gradient        0.0198157213            0.0003000000      NO
          RMS step            0.0052245939            0.0020000000      NO
          MAX step            0.0388961744            0.0040000000      NO
          ........................................................
          Max(Bonds)      0.0096      Max(Angles)    0.39
          Max(Dihed)        2.23      Max(Improp)    0.00
          ---------------------------------------------------------------------

The optimization has not yet converged - more geometry cycles are needed


    ---------------------------------------------------------------------------
                         Redundant Internal Coordinates
                            (Angstroem and degrees)

        Definition                    Value    dE/dq     Step     New-Value
    ----------------------------------------------------------------------------
     1. B(C   1,C   0)                1.3922 -0.000357  0.0003    1.3925   
     2. B(C   2,C   1)                1.3714  0.000142 -0.0001    1.3713   
     3. B(C   3,C   0)                1.3791  0.000104 -0.0001    1.3790   
     4. B(C   4,C   3)                1.4113 -0.000471  0.0004    1.4117   
     5. B(O   5,C   3)                1.3781 -0.005335  0.0048    1.3829   
     6. B(C   6,C   4)                1.4155 -0.000616  0.0006    1.4161   
     7. B(C   6,C   2)                1.4032 -0.000064  0.0001    1.4033   
     8. B(C   7,C   6)                1.4255 -0.000029  0.0000    1.4255   
     9. B(C   8,C   7)                1.3518  0.000013 -0.0000    1.3518   
    10. B(C   9,C   4)                1.4401 -0.000540  0.0006    1.4407   
    11. B(C  10,C   9)                1.4171 -0.000117  0.0001    1.4172   
    12. B(C  10,C   8)                1.4217 -0.000088  0.0001    1.4218   
    13. B(N  11,C   9)                1.3392 -0.001660  0.0013    1.3406   
    14. B(C  12,N  11)                1.3081 -0.002301  0.0017    1.3097   
    15. B(C  13,C  12)                1.3971  0.000352 -0.0003    1.3968   
    16. B(C  14,C  13)                1.3732 -0.000309  0.0002    1.3734   
    17. B(C  14,C  10)                1.4032 -0.000506  0.0004    1.4036   
    18. B(C  15,O   5)                1.3688  0.002364 -0.0021    1.3667   
    19. B(O  16,C  15)                1.2079 -0.019816  0.0096    1.2175   
    20. B(N  17,C  15)                1.3485  0.008531 -0.0069    1.3415   
    21. B(C  18,N  17)                1.4412 -0.001939  0.0022    1.4434   
    22. B(C  19,N  17)                1.4400 -0.001534  0.0017    1.4418   
    23. B(H  20,C  19)                1.0924  0.001312 -0.0019    1.0904   
    24. B(H  21,C  19)                1.0855  0.000134 -0.0002    1.0853   
    25. B(H  22,C  19)                1.0942  0.001409 -0.0021    1.0921   
    26. B(H  23,C  18)                1.0876 -0.000247  0.0004    1.0880   
    27. B(H  24,C  18)                1.0932  0.001198 -0.0018    1.0914   
    28. B(H  25,C  18)                1.0929  0.001266 -0.0019    1.0910   
    29. B(H  26,C   2)                1.0802  0.000888 -0.0013    1.0790   
    30. B(H  27,C   0)                1.0791  0.000180 -0.0003    1.0788   
    31. B(H  28,C   1)                1.0797  0.000881 -0.0012    1.0784   
    32. B(H  29,C   7)                1.0807  0.000888 -0.0013    1.0794   
    33. B(H  30,C   8)                1.0810  0.000848 -0.0012    1.0798   
    34. B(H  31,C  12)                1.0830  0.000837 -0.0012    1.0818   
    35. B(H  32,C  13)                1.0791  0.000896 -0.0013    1.0778   
    36. B(H  33,C  14)                1.0817  0.000827 -0.0012    1.0805   
    37. A(C   1,C   0,C   3)          120.60 -0.000047    0.01    120.60   
    38. A(C   3,C   0,H  27)          118.64  0.000345   -0.05    118.58   
    39. A(C   1,C   0,H  27)          120.76 -0.000299    0.05    120.81   
    40. A(C   2,C   1,H  28)          120.54 -0.000281    0.05    120.59   
    41. A(C   0,C   1,C   2)          119.89  0.000054   -0.01    119.88   
    42. A(C   0,C   1,H  28)          119.55  0.000226   -0.03    119.51   
    43. A(C   1,C   2,H  26)          120.53 -0.000147    0.03    120.55   
    44. A(C   1,C   2,C   6)          120.67 -0.000141    0.02    120.69   
    45. A(C   6,C   2,H  26)          118.80  0.000288   -0.04    118.76   
    46. A(C   4,C   3,O   5)          122.14 -0.001095    0.15    122.29   
    47. A(C   0,C   3,C   4)          120.84 -0.000144    0.02    120.86   
    48. A(C   0,C   3,O   5)          117.01  0.001238   -0.17    116.84   
    49. A(C   3,C   4,C   9)          123.43 -0.000655    0.09    123.51   
    50. A(C   3,C   4,C   6)          117.85  0.000335   -0.04    117.81   
    51. A(C   6,C   4,C   9)          118.72  0.000319   -0.04    118.68   
    52. A(C   3,O   5,C  15)          116.61 -0.002906    0.39    117.00   
    53. A(C   4,C   6,C   7)          119.73 -0.000078    0.01    119.74   
    54. A(C   2,C   6,C   7)          120.26  0.000133   -0.02    120.24   
    55. A(C   2,C   6,C   4)          120.02 -0.000055    0.01    120.02   
    56. A(C   6,C   7,H  29)          117.84  0.000257   -0.04    117.80   
    57. A(C   6,C   7,C   8)          121.49 -0.000041    0.00    121.49   
    58. A(C   8,C   7,H  29)          120.67 -0.000215    0.03    120.70   
    59. A(C   7,C   8,H  30)          121.21 -0.000231    0.04    121.25   
    60. A(C  10,C   8,H  30)          118.28  0.000355   -0.05    118.22   
    61. A(C   7,C   8,C  10)          120.50 -0.000125    0.01    120.52   
    62. A(C   4,C   9,C  10)          119.41 -0.000121    0.02    119.43   
    63. A(C  10,C   9,N  11)          121.19  0.000285   -0.03    121.16   
    64. A(C   4,C   9,N  11)          119.38 -0.000168    0.02    119.41   
    65. A(C   9,C  10,C  14)          117.93 -0.000202    0.02    117.95   
    66. A(C   8,C  10,C  14)          122.12  0.000156   -0.01    122.11   
    67. A(C   8,C  10,C   9)          119.94  0.000046   -0.01    119.93   
    68. A(C   9,N  11,C  12)          119.54  0.000267   -0.01    119.52   
    69. A(N  11,C  12,H  31)          115.50  0.000559   -0.09    115.41   
    70. A(N  11,C  12,C  13)          123.79  0.000161   -0.01    123.78   
    71. A(C  13,C  12,H  31)          120.71 -0.000720    0.11    120.82   
    72. A(C  12,C  13,H  32)          120.49  0.000314   -0.04    120.44   
    73. A(C  12,C  13,C  14)          117.90 -0.000160    0.01    117.92   
    74. A(C  14,C  13,H  32)          121.60 -0.000154    0.03    121.63   
    75. A(C  10,C  14,H  33)          119.28  0.000439   -0.06    119.22   
    76. A(C  10,C  14,C  13)          119.56 -0.000352    0.03    119.59   
    77. A(C  13,C  14,H  33)          121.16 -0.000087    0.03    121.18   
    78. A(O  16,C  15,N  17)          124.68 -0.000807    0.07    124.75   
    79. A(O   5,C  15,N  17)          111.64 -0.001563    0.18    111.82   
    80. A(O   5,C  15,O  16)          123.43  0.002398   -0.31    123.12   
    81. A(C  18,N  17,C  19)          116.73  0.002046   -0.29    116.43   
    82. A(C  15,N  17,C  19)          123.98  0.000148   -0.01    123.97   
    83. A(C  15,N  17,C  18)          119.23 -0.002204    0.32    119.55   
    84. A(H  24,C  18,H  25)          108.90 -0.000679    0.08    108.98   
    85. A(H  23,C  18,H  25)          109.57  0.000065    0.00    109.57   
    86. A(N  17,C  18,H  25)          110.25  0.001117   -0.21    110.04   
    87. A(H  23,C  18,H  24)          109.30  0.000140    0.01    109.31   
    88. A(N  17,C  18,H  24)          110.55  0.001058   -0.19    110.36   
    89. A(N  17,C  18,H  23)          108.26 -0.001706    0.31    108.57   
    90. A(H  21,C  19,H  22)          109.31 -0.000346    0.07    109.38   
    91. A(H  20,C  19,H  22)          108.64 -0.000873    0.13    108.77   
    92. A(N  17,C  19,H  22)          110.62  0.001121   -0.21    110.40   
    93. A(H  20,C  19,H  21)          109.14 -0.000404    0.10    109.24   
    94. A(N  17,C  19,H  21)          109.60 -0.000787    0.14    109.74   
    95. A(N  17,C  19,H  20)          109.52  0.001270   -0.23    109.29   
    96. D(H  28,C   1,C   0,C   3)    179.85  0.000072   -0.14    179.71   
    97. D(C   2,C   1,C   0,C   3)     -1.73  0.000062   -0.12     -1.85   
    98. D(H  28,C   1,C   0,H  27)     -0.89 -0.000006    0.03     -0.86   
    99. D(C   2,C   1,C   0,H  27)    177.53 -0.000016    0.04    177.58   
   100. D(C   6,C   2,C   1,C   0)      2.08 -0.000005    0.00      2.09   
   101. D(H  26,C   2,C   1,C   0)   -177.79 -0.000027    0.05   -177.74   
   102. D(C   6,C   2,C   1,H  28)   -179.51 -0.000006    0.02   -179.49   
   103. D(H  26,C   2,C   1,H  28)      0.62 -0.000029    0.06      0.68   
   104. D(O   5,C   3,C   0,C   1)    179.93  0.000021   -0.02    179.92   
   105. D(C   4,C   3,C   0,H  27)    179.43  0.000023   -0.04    179.40   
   106. D(C   4,C   3,C   0,C   1)     -1.29 -0.000058    0.12     -1.16   
   107. D(O   5,C   3,C   0,H  27)      0.66  0.000102   -0.18      0.48   
   108. D(C   6,C   4,C   3,O   5)   -177.47 -0.000037    0.13   -177.34   
   109. D(C   9,C   4,C   3,C   0)   -175.88  0.000166   -0.41   -176.29   
   110. D(C   9,C   4,C   3,O   5)      2.83  0.000112   -0.26      2.57   
   111. D(C   6,C   4,C   3,C   0)      3.81  0.000016   -0.01      3.80   
   112. D(C  15,O   5,C   3,C   4)     56.98  0.000372   -0.83     56.16   
   113. D(C  15,O   5,C   3,C   0)   -124.26  0.000305   -0.68   -124.94   
   114. D(C   7,C   6,C   4,C   9)     -4.10 -0.000072    0.18     -3.91   
   115. D(C   7,C   6,C   4,C   3)    176.20  0.000073   -0.19    176.00   
   116. D(C   2,C   6,C   4,C   9)    176.28 -0.000107    0.27    176.55   
   117. D(C   2,C   6,C   4,C   3)     -3.43  0.000039   -0.10     -3.53   
   118. D(C   7,C   6,C   2,H  26)      0.79 -0.000065    0.16      0.95   
   119. D(C   7,C   6,C   2,C   1)   -179.08 -0.000086    0.20   -178.88   
   120. D(C   4,C   6,C   2,H  26)   -179.58 -0.000031    0.07   -179.51   
   121. D(C   4,C   6,C   2,C   1)      0.54 -0.000052    0.11      0.65   
   122. D(H  29,C   7,C   6,C   4)   -178.95  0.000040   -0.13   -179.09   
   123. D(H  29,C   7,C   6,C   2)      0.67  0.000074   -0.22      0.45   
   124. D(C   8,C   7,C   6,C   4)      0.25  0.000088   -0.24      0.02   
   125. D(C   8,C   7,C   6,C   2)    179.88  0.000122   -0.33    179.55   
   126. D(C  10,C   8,C   7,C   6)      2.43 -0.000024    0.04      2.47   
   127. D(H  30,C   8,C   7,H  29)      0.58 -0.000000   -0.00      0.58   
   128. D(H  30,C   8,C   7,C   6)   -178.61 -0.000053    0.10   -178.50   
   129. D(C  10,C   8,C   7,H  29)   -178.38  0.000028   -0.07   -178.45   
   130. D(N  11,C   9,C   4,C   6)   -173.25  0.000134   -0.32   -173.57   
   131. D(N  11,C   9,C   4,C   3)      6.44 -0.000017    0.07      6.51   
   132. D(C  10,C   9,C   4,C   6)      5.28 -0.000029    0.06      5.34   
   133. D(C  10,C   9,C   4,C   3)   -175.03 -0.000180    0.46   -174.57   
   134. D(C  14,C  10,C   9,N  11)     -3.22 -0.000055    0.14     -3.08   
   135. D(C  14,C  10,C   9,C   4)    178.28  0.000117   -0.26    178.02   
   136. D(C   8,C  10,C   9,N  11)    175.79 -0.000055    0.13    175.92   
   137. D(C   8,C  10,C   9,C   4)     -2.71  0.000117   -0.26     -2.98   
   138. D(C  14,C  10,C   8,H  30)     -1.19 -0.000049    0.14     -1.05   
   139. D(C  14,C  10,C   8,C   7)    177.79 -0.000083    0.21    178.00   
   140. D(C   9,C  10,C   8,H  30)    179.84 -0.000045    0.15    179.99   
   141. D(C   9,C  10,C   8,C   7)     -1.17 -0.000079    0.21     -0.96   
   142. D(C  12,N  11,C   9,C  10)      2.68 -0.000001   -0.03      2.64   
   143. D(C  12,N  11,C   9,C   4)   -178.82 -0.000173    0.36   -178.46   
   144. D(H  31,C  12,N  11,C   9)   -179.83 -0.000000    0.02   -179.82   
   145. D(C  13,C  12,N  11,C   9)     -0.14  0.000054   -0.07     -0.21   
   146. D(H  32,C  13,C  12,H  31)     -1.37 -0.000003    0.01     -1.35   
   147. D(H  32,C  13,C  12,N  11)    178.95 -0.000064    0.11    179.06   
   148. D(C  14,C  13,C  12,H  31)    177.91  0.000024   -0.03    177.87   
   149. D(C  14,C  13,C  12,N  11)     -1.77 -0.000036    0.06     -1.71   
   150. D(H  33,C  14,C  13,H  32)      0.69  0.000012   -0.03      0.66   
   151. D(H  33,C  14,C  13,C  12)   -178.58 -0.000019    0.02   -178.56   
   152. D(C  10,C  14,C  13,H  32)   -179.64 -0.000010    0.01   -179.63   
   153. D(C  10,C  14,C  13,C  12)      1.09 -0.000042    0.06      1.15   
   154. D(H  33,C  14,C  10,C   9)   -179.07  0.000035   -0.11   -179.18   
   155. D(H  33,C  14,C  10,C   8)      1.94  0.000037   -0.10      1.85   
   156. D(C  13,C  14,C  10,C   9)      1.25  0.000059   -0.15      1.10   
   157. D(C  13,C  14,C  10,C   8)   -177.74  0.000061   -0.14   -177.87   
   158. D(O  16,C  15,O   5,C   3)     17.58  0.000814   -1.63     15.95   
   159. D(N  17,C  15,O   5,C   3)   -168.02  0.001041   -2.23   -170.25   
   160. D(C  19,N  17,C  15,O  16)   -177.21  0.000577   -0.92   -178.13   
   161. D(C  19,N  17,C  15,O   5)      8.48  0.000134   -0.28      8.19   
   162. D(C  18,N  17,C  15,O  16)     -0.24  0.000410   -0.59     -0.84   
   163. D(C  18,N  17,C  15,O   5)   -174.56 -0.000033    0.04   -174.51   
   164. D(H  25,C  18,N  17,C  15)    122.59 -0.000334    0.16    122.76   
   165. D(H  24,C  18,N  17,C  19)     60.24  0.000030    0.31     60.55   
   166. D(H  24,C  18,N  17,C  15)   -116.94  0.000232    0.00   -116.94   
   167. D(H  23,C  18,N  17,C  19)    179.93 -0.000227    0.40    180.33   
   168. D(H  23,C  18,N  17,C  15)      2.75 -0.000026    0.09      2.84   
   169. D(H  22,C  19,N  17,C  15)   -110.44  0.000169    0.01   -110.43   
   170. D(H  21,C  19,N  17,C  18)   -166.87  0.000223   -0.28   -167.16   
   171. D(H  21,C  19,N  17,C  15)     10.16 -0.000058    0.05     10.21   
   172. D(H  20,C  19,N  17,C  18)    -47.18  0.000025   -0.21    -47.39   
   173. D(H  20,C  19,N  17,C  15)    129.85 -0.000256    0.13    129.98   
    ----------------------------------------------------------------------------

Geometry step timings:
Preparation and reading OPT file:      0.003 s (13.921 %)
Internal coordinates            :      0.000 s ( 0.137 %)
B/P matrices and projection     :      0.003 s (13.218 %)
Hessian update/contruction      :      0.007 s (35.881 %)
Making the step                 :      0.003 s (15.700 %)
Converting the step to Cartesian:      0.000 s ( 1.246 %)
Storing new data                :      0.002 s (10.481 %)
Checking convergence            :      0.000 s ( 0.059 %)
Final printing                  :      0.002 s ( 9.323 %)
Total time                      :      0.020 s

Time for energy+gradient        :      0.965 s
Time for complete geometry iter :      1.018 s

         *************************************************************
         *                GEOMETRY OPTIMIZATION CYCLE   2            *
         *************************************************************
---------------------------------
CARTESIAN COORDINATES (ANGSTROEM)
---------------------------------
  C    -3.060649   -1.424091    0.180690
  C    -2.470143   -2.344107   -0.681785
  C    -1.224982   -2.094085   -1.198994
  C    -2.389075   -0.278205    0.551606
  C    -1.080873   -0.022924    0.086488
  O    -3.049089    0.582223    1.409833
  C    -0.516863   -0.938646   -0.834734
  C     0.766735   -0.676430   -1.396557
  C     1.467050    0.432895   -1.070527
  C    -0.298300    1.114601    0.497732
  C     0.959962    1.350495   -0.110105
  N    -0.763444    1.918874    1.464116
  C    -0.068161    2.970675    1.818686
  C     1.158032    3.319476    1.247968
  C     1.677411    2.490869    0.283629
  C    -3.185874    1.879919    1.003505
  O    -3.020762    2.237064   -0.148684
  N    -3.647433    2.664871    1.988669
  C    -3.967582    4.044228    1.708942
  C    -3.800072    2.235222    3.356441
  H    -3.329419    2.963635    4.017468
  H    -3.324515    1.269173    3.492516
  H    -4.858232    2.157946    3.615441
  H    -3.814477    4.227038    0.647435
  H    -3.322112    4.708472    2.286256
  H    -5.007783    4.246578    1.968382
  H    -0.772577   -2.781859   -1.896452
  H    -4.055241   -1.586928    0.565615
  H    -3.009397   -3.236683   -0.956605
  H     1.160181   -1.387682   -2.106775
  H     2.428515    0.639711   -1.516489
  H    -0.503685    3.571031    2.606210
  H     1.678033    4.206671    1.570799
  H     2.632978    2.697800   -0.176337

----------------------------
CARTESIAN COORDINATES (A.U.)
----------------------------
  NO LB    ZA    FRAG    MASS        X           Y           Z
   0 C   6.0000    1    12.011   -5.783789   -2.691141    0.341454
   1 C   6.0000    1    12.011   -4.667895   -4.429719   -1.288387
   2 C   6.0000    1    12.011   -2.314880   -3.957248   -2.265771
   3 C   6.0000    1    12.011   -4.514697   -0.525732    1.042384
   4 C   6.0000    1    12.011   -2.042554   -0.043320    0.163438
   5 O   8.0000    1    15.999   -5.761944    1.100242    2.664198
   6 C   6.0000    1    12.011   -0.976729   -1.773783   -1.577419
   7 C   6.0000    1    12.011    1.448920   -1.278267   -2.639111
   8 C   6.0000    1    12.011    2.772324    0.818053   -2.023003
   9 C   6.0000    1    12.011   -0.563706    2.106291    0.940578
  10 C   6.0000    1    12.011    1.814066    2.552066   -0.208068
  11 N   7.0000    1    14.007   -1.442700    3.626147    2.766779
  12 C   6.0000    1    12.011   -0.128805    5.613763    3.436818
  13 C   6.0000    1    12.011    2.188363    6.272901    2.358317
  14 C   6.0000    1    12.011    3.169848    4.707060    0.535980
  15 C   6.0000    1    12.011   -6.020430    3.552533    1.896349
  16 O   8.0000    1    15.999   -5.708412    4.227438   -0.280972
  17 N   7.0000    1    14.007   -6.892649    5.035876    3.758040
  18 C   6.0000    1    12.011   -7.497643    7.642484    3.229432
  19 C   6.0000    1    12.011   -7.181095    4.223958    6.342754
  20 H   1.0000    1     1.008   -6.291691    5.600459    7.591914
  21 H   1.0000    1     1.008   -6.282422    2.398389    6.599899
  22 H   1.0000    1     1.008   -9.180728    4.077928    6.832193
  23 H   1.0000    1     1.008   -7.208317    7.987944    1.223475
  24 H   1.0000    1     1.008   -6.277882    8.897722    4.320397
  25 H   1.0000    1     1.008   -9.463338    8.024870    3.719703
  26 H   1.0000    1     1.008   -1.459958   -5.256952   -3.583775
  27 H   1.0000    1     1.008   -7.663295   -2.998859    1.068858
  28 H   1.0000    1     1.008   -5.686936   -6.116445   -1.807722
  29 H   1.0000    1     1.008    2.192425   -2.622339   -3.981228
  30 H   1.0000    1     1.008    4.589229    1.208879   -2.865749
  31 H   1.0000    1     1.008   -0.951826    6.748270    4.925022
  32 H   1.0000    1     1.008    3.171023    7.949457    2.968380
  33 H   1.0000    1     1.008    4.975607    5.098103   -0.333229

      -----------------------------------------------------------      
     |                   =====================                   |     
     |                           x T B                           |     
     |                   =====================                   |     
     |                         S. Grimme                         |     
     |          Mulliken Center for Theoretical Chemistry        |     
     |                    University of Bonn                     |     
      -----------------------------------------------------------      

   * xtb version 6.7.1 (edcfbbe) compiled by 'albert@albert-system' on 2024-07-22

   xtb is free software: you can redistribute it and/or modify it under
   the terms of the GNU Lesser General Public License as published by
   the Free Software Foundation, either version 3 of the License, or
   (at your option) any later version.
   
   xtb is distributed in the hope that it will be useful,
   but WITHOUT ANY WARRANTY; without even the implied warranty of
   MERCHANTABILITY or FITNESS FOR A PARTICULAR PURPOSE.  See the
   GNU Lesser General Public License for more details.
   
   Cite this work as:
   * C. Bannwarth, E. Caldeweyher, S. Ehlert, A. Hansen, P. Pracht,
     J. Seibert, S. Spicher, S. Grimme, WIREs Comput. Mol. Sci., 2020, 11,
     e01493. DOI: 10.1002/wcms.1493
   
   for GFN2-xTB:
   * C. Bannwarth, S. Ehlert and S. Grimme., J. Chem. Theory Comput., 2019,
     15, 1652-1671. DOI: 10.1021/acs.jctc.8b01176
   for GFN1-xTB:
   * S. Grimme, C. Bannwarth, P. Shushkov, J. Chem. Theory Comput., 2017,
     13, 1989-2009. DOI: 10.1021/acs.jctc.7b00118
   for GFN0-xTB:
   * P. Pracht, E. Caldeweyher, S. Ehlert, S. Grimme, ChemRxiv, 2019, preprint.
     DOI: 10.26434/chemrxiv.8326202.v1
   for GFN-FF:
   * S. Spicher and S. Grimme, Angew. Chem. Int. Ed., 2020, 59, 15665-15673.
     DOI: 10.1002/anie.202004239
   
   for ALPB and GBSA implicit solvation:
   * S. Ehlert, M. Stahn, S. Spicher, S. Grimme, J. Chem. Theory Comput.,
     2021, 17, 4250-4261. DOI: 10.1021/acs.jctc.1c00471
   
   for ddCOSMO and CPCM-X implicit solvation:
   * M. Stahn, S. Ehlert, S. Grimme, J. Phys. Chem. A,
     2023, XX, XXXX-XXXX. DOI: 10.1021/acs.jpca.3c04382
   
   for DFT-D4:
   * E. Caldeweyher, C. Bannwarth and S. Grimme, J. Chem. Phys., 2017,
     147, 034112. DOI: 10.1063/1.4993215
   * E. Caldeweyher, S. Ehlert, A. Hansen, H. Neugebauer, S. Spicher,
     C. Bannwarth and S. Grimme, J. Chem. Phys., 2019, 150, 154122.
     DOI: 10.1063/1.5090222
   * E. Caldeweyher, J.-M. Mewes, S. Ehlert and S. Grimme, Phys. Chem. Chem. Phys.
     2020, 22, 8499-8512. DOI: 10.1039/D0CP00502A
   
   for sTDA-xTB:
   * S. Grimme and C. Bannwarth, J. Chem. Phys., 2016, 145, 054103.
     DOI: 10.1063/1.4959605
   
   in the mass-spec context:
   * V. Asgeirsson, C. Bauer and S. Grimme, Chem. Sci., 2017, 8, 4879.
     DOI: 10.1039/c7sc00601b
   * J. Koopman and S. Grimme, ACS Omega 2019, 4, 12, 15120-15133.
     DOI: 10.1021/acsomega.9b02011
   
   for metadynamics refer to:
   * S. Grimme, J. Chem. Theory Comput., 2019, 155, 2847-2862
     DOI: 10.1021/acs.jctc.9b00143
   
   for SPH calculations refer to:
   * S. Spicher and S. Grimme, J. Chem. Theory Comput., 2021, 17, 1701-1714
     DOI: 10.1021/acs.jctc.0c01306
   
   for ONIOM refer to:
   * C. Plett, A. Katbashev, S. Ehlert, S. Grimme, M. Bursch,
     Phys. Chem. Chem. Phys., 2023, 25, 17860-17868. DOI: 10.1039/D3CP02178E
   
   for DIPRO refer to:
   * J. Kohn, N. Gildemeister, S. Grimme, D. Fazzi, A. Hansen,
     J. Chem. Phys., 2023, just accepted.
   
   for PTB refer to:
   * S. Grimme, M. Mueller, A. Hansen, J. Chem. Phys., 2023, 158, 124111.
     DOI: 10.1063/5.0137838
   
   with help from (in alphabetical order)
   P. Atkinson, C. Bannwarth, F. Bohle, G. Brandenburg, E. Caldeweyher
   M. Checinski, S. Dohm, S. Ehlert, S. Ehrlich, I. Gerasimov, C. Hölzer
   A. Katbashev, J. Kohn, J. Koopman, C. Lavigne, S. Lehtola, F. März, M. Müller,
   F. Musil, H. Neugebauer, J. Pisarek, C. Plett, P. Pracht, F. Pultar,
   J. Seibert, P. Shushkov, S. Spicher, M. Stahn, M. Steiner, T. Strunk,
   J. Stückrath, T. Rose, and J. Unsleber
   
 * started run on 2024/12/21 at 19:12:52.319     
   ID    Z sym.   atoms
    1    6 C      1-5, 7-11, 13-16, 19, 20
    2    8 O      6, 17
    3    7 N      12, 18
    4    1 H      21-34

           -------------------------------------------------
          |                Calculation Setup                |
           -------------------------------------------------

          program call               : /home/mmaximo/orca_6_0_1_avx2/otool_xtb HBQ_ES-GOAT_XTB.xyz --grad -c 0 -u 0 -P 1 --namespace HBQ_ES-GOAT --input HBQ_ES-GOAT_XTB.input.tmp --cosmo WATER --acc 0.200000
          hostname                   : n01
          calculation namespace      : HBQ_ES-GOAT
          coordinate file            : HBQ_ES-GOAT_XTB.xyz
          omp threads                :                     1


           -------------------------------------------------
          |                 G F N 2 - x T B                 |
           -------------------------------------------------

        Reference                      10.1021/acs.jctc.8b01176
      * Hamiltonian:
        H0-scaling (s, p, d)           1.850000    2.230000    2.230000
        zeta-weighting                 0.500000
      * Dispersion:
        s8                             2.700000
        a1                             0.520000
        a2                             5.000000
        s9                             5.000000
      * Repulsion:
        kExp                           1.500000    1.000000
        rExp                           1.000000
      * Coulomb:
        alpha                          2.000000
        third order                    shell-resolved
        anisotropic                    true
        a3                             3.000000
        a5                             4.000000
        cn-shift                       1.200000
        cn-exp                         4.000000
        max-rad                        5.000000

      * Solvation model:               COSMO
        Solvent                        WATER
        Parameter file                 internal GFN2-xTB/ALPB+COSMO
        Dielectric constant                8.0200E+01
        Reference state                gsolv [1 M gas/solution]
        Free energy shift                  0.0000E+00 Eh       0.0000E+00 kcal/mol
        Temperature                        2.9815E+02 K
        Density                            1.0000E+00 kg/L
        Solvent mass                       1.8000E+01 g/mol
        vdW Radii scaling                  1.0000E+00
        Surface tension                    1.0000E-05 Eh       1.5569E+01 dyn/cm
        Grid points                               230 per atom
q/qsh data taken from xtbrestart
CAMM data taken from xtbrestart

          ...................................................
          :                      SETUP                      :
          :.................................................:
          :  # basis functions                  94          :
          :  # atomic orbitals                  94          :
          :  # shells                           54          :
          :  # electrons                       100          :
          :  max. iterations                   250          :
          :  Hamiltonian                  GFN2-xTB          :
          :  restarted?                       true          :
          :  GBSA solvation                   true          :
          :  PC potential                    false          :
          :  electronic temp.          300.0000000     K    :
          :  accuracy                    0.2000000          :
          :  -> integral cutoff          0.3198970E+02      :
          :  -> integral neglect         0.2000000E-08      :
          :  -> SCF convergence          0.2000000E-06 Eh   :
          :  -> wf. convergence          0.2000000E-04 e    :
          :  Broyden damping             0.4000000          :
          :  net charge                          0          :
          :  unpaired electrons                  0          :
          ...................................................

 iter      E             dE          RMSdq      gap      omega  full diag
   1    -56.2923584 -0.562924E+02  0.106E-01    2.56       0.0  T
   2    -56.2932221 -0.863704E-03  0.596E-02    2.56       1.0  T
   3    -56.2934437 -0.221586E-03  0.229E-02    2.56       1.0  T
   4    -56.2936002 -0.156464E-03  0.780E-03    2.56       2.2  T
   5    -56.2935833  0.168774E-04  0.215E-03    2.56       8.0  T
   6    -56.2935752  0.807821E-05  0.110E-03    2.56      15.6  T
   7    -56.2935687  0.648169E-05  0.533E-04    2.56      32.2  T
   8    -56.2935703 -0.159528E-05  0.264E-04    2.56      64.9  T
   9    -56.2935715 -0.114128E-05  0.116E-04    2.56     147.8  T
  10    -56.2935723 -0.811393E-06  0.548E-05    2.56     313.2  T
  11    -56.2935727 -0.399194E-06  0.275E-05    2.56     623.4  T
  12    -56.2935726  0.957552E-07  0.891E-06    2.56    1924.9  T
  13    -56.2935726 -0.104320E-07  0.458E-06    2.56    3744.6  T

   *** convergence criteria satisfied after 13 iterations ***

         #    Occupation            Energy/Eh            Energy/eV
      -------------------------------------------------------------
         1        2.0000           -0.7382183             -20.0879
       ...           ...                  ...                  ...
        44        2.0000           -0.4314080             -11.7392
        45        2.0000           -0.4242472             -11.5444
        46        2.0000           -0.4225964             -11.4994
        47        2.0000           -0.4041888             -10.9985
        48        2.0000           -0.3927699             -10.6878
        49        2.0000           -0.3860116             -10.5039
        50        2.0000           -0.3731493             -10.1539 (HOMO)
        51                         -0.2790225              -7.5926 (LUMO)
        52                         -0.2667852              -7.2596
        53                         -0.2299783              -6.2580
        54                         -0.2059848              -5.6051
        55                         -0.1890091              -5.1432
       ...                                ...                  ...
        94                          0.6978454              18.9893
      -------------------------------------------------------------
                  HL-Gap            0.0941268 Eh            2.5613 eV
             Fermi-level           -0.3260859 Eh           -8.8732 eV

 SCC (total)                   0 d,  0 h,  0 min,  0.549 sec
 SCC setup                      ...        0 min,  0.012 sec (  2.146%)
 Dispersion                     ...        0 min,  0.002 sec (  0.290%)
 classical contributions        ...        0 min,  0.000 sec (  0.010%)
 integral evaluation            ...        0 min,  0.011 sec (  1.935%)
[...]
     J. Chem. Phys., 2023, just accepted.
   
   for PTB refer to:
   * S. Grimme, M. Mueller, A. Hansen, J. Chem. Phys., 2023, 158, 124111.
     DOI: 10.1063/5.0137838
   
   with help from (in alphabetical order)
   P. Atkinson, C. Bannwarth, F. Bohle, G. Brandenburg, E. Caldeweyher
   M. Checinski, S. Dohm, S. Ehlert, S. Ehrlich, I. Gerasimov, C. Hölzer
   A. Katbashev, J. Kohn, J. Koopman, C. Lavigne, S. Lehtola, F. März, M. Müller,
   F. Musil, H. Neugebauer, J. Pisarek, C. Plett, P. Pracht, F. Pultar,
   J. Seibert, P. Shushkov, S. Spicher, M. Stahn, M. Steiner, T. Strunk,
   J. Stückrath, T. Rose, and J. Unsleber
   
 * started run on 2024/12/21 at 19:12:57.826     
   ID    Z sym.   atoms
    1    6 C      1-5, 7-11, 13-16, 19, 20
    2    8 O      6, 17
    3    7 N      12, 18
    4    1 H      21-34

           -------------------------------------------------
          |                Calculation Setup                |
           -------------------------------------------------

          program call               : /home/mmaximo/orca_6_0_1_avx2/otool_xtb HBQ_ES-GOAT_XTB.xyz --grad -c 0 -u 0 -P 1 --namespace HBQ_ES-GOAT --input HBQ_ES-GOAT_XTB.input.tmp --cosmo WATER --acc 0.200000
          hostname                   : n01
          calculation namespace      : HBQ_ES-GOAT
          coordinate file            : HBQ_ES-GOAT_XTB.xyz
          omp threads                :                     1


           -------------------------------------------------
          |                 G F N 2 - x T B                 |
           -------------------------------------------------

        Reference                      10.1021/acs.jctc.8b01176
      * Hamiltonian:
        H0-scaling (s, p, d)           1.850000    2.230000    2.230000
        zeta-weighting                 0.500000
      * Dispersion:
        s8                             2.700000
        a1                             0.520000
        a2                             5.000000
        s9                             5.000000
      * Repulsion:
        kExp                           1.500000    1.000000
        rExp                           1.000000
      * Coulomb:
        alpha                          2.000000
        third order                    shell-resolved
        anisotropic                    true
        a3                             3.000000
        a5                             4.000000
        cn-shift                       1.200000
        cn-exp                         4.000000
        max-rad                        5.000000

      * Solvation model:               COSMO
        Solvent                        WATER
        Parameter file                 internal GFN2-xTB/ALPB+COSMO
        Dielectric constant                8.0200E+01
        Reference state                gsolv [1 M gas/solution]
        Free energy shift                  0.0000E+00 Eh       0.0000E+00 kcal/mol
        Temperature                        2.9815E+02 K
        Density                            1.0000E+00 kg/L
        Solvent mass                       1.8000E+01 g/mol
        vdW Radii scaling                  1.0000E+00
        Surface tension                    1.0000E-05 Eh       1.5569E+01 dyn/cm
        Grid points                               230 per atom
q/qsh data taken from xtbrestart
CAMM data taken from xtbrestart

          ...................................................
          :                      SETUP                      :
          :.................................................:
          :  # basis functions                  94          :
          :  # atomic orbitals                  94          :
          :  # shells                           54          :
          :  # electrons                       100          :
          :  max. iterations                   250          :
          :  Hamiltonian                  GFN2-xTB          :
          :  restarted?                       true          :
          :  GBSA solvation                   true          :
          :  PC potential                    false          :
          :  electronic temp.          300.0000000     K    :
          :  accuracy                    0.2000000          :
          :  -> integral cutoff          0.3198970E+02      :
          :  -> integral neglect         0.2000000E-08      :
          :  -> SCF convergence          0.2000000E-06 Eh   :
          :  -> wf. convergence          0.2000000E-04 e    :
          :  Broyden damping             0.4000000          :
          :  net charge                          0          :
          :  unpaired electrons                  0          :
          ...................................................

 iter      E             dE          RMSdq      gap      omega  full diag
   1    -56.2936294 -0.562936E+02  0.293E-03    2.56       0.0  T
   2    -56.2936354 -0.598936E-05  0.174E-03    2.56       9.9  T
   3    -56.2936280  0.735664E-05  0.546E-04    2.56      31.4  T
   4    -56.2936343 -0.624119E-05  0.112E-04    2.56     153.5  T
   5    -56.2936336  0.697674E-06  0.507E-05    2.56     338.5  T
   6    -56.2936335  0.944329E-07  0.254E-05    2.56     675.7  T
   7    -56.2936336 -0.118341E-06  0.759E-06    2.56    2260.1  T

   *** convergence criteria satisfied after 7 iterations ***

         #    Occupation            Energy/Eh            Energy/eV
      -------------------------------------------------------------
         1        2.0000           -0.7384565             -20.0944
       ...           ...                  ...                  ...
        44        2.0000           -0.4311222             -11.7314
        45        2.0000           -0.4242801             -11.5452
        46        2.0000           -0.4218512             -11.4792
        47        2.0000           -0.4043850             -11.0039
        48        2.0000           -0.3934719             -10.7069
        49        2.0000           -0.3867387             -10.5237
        50        2.0000           -0.3732184             -10.1558 (HOMO)
        51                         -0.2792427              -7.5986 (LUMO)
        52                         -0.2669274              -7.2635
        53                         -0.2302352              -6.2650
        54                         -0.2061550              -5.6098
        55                         -0.1891160              -5.1461
       ...                                ...                  ...
        94                          0.6977981              18.9881
      -------------------------------------------------------------
                  HL-Gap            0.0939757 Eh            2.5572 eV
             Fermi-level           -0.3262305 Eh           -8.8772 eV

 SCC (total)                   0 d,  0 h,  0 min,  0.315 sec
 SCC setup                      ...        0 min,  0.012 sec (  3.729%)
 Dispersion                     ...        0 min,  0.002 sec (  0.502%)
 classical contributions        ...        0 min,  0.000 sec (  0.017%)
 integral evaluation            ...        0 min,  0.011 sec (  3.349%)
 iterations                     ...        0 min,  0.237 sec ( 75.330%)
 molecular gradient             ...        0 min,  0.044 sec ( 13.970%)
 printout                       ...        0 min,  0.010 sec (  3.096%)

         :::::::::::::::::::::::::::::::::::::::::::::::::::::
         ::                     SUMMARY                     ::
         :::::::::::::::::::::::::::::::::::::::::::::::::::::
         :: total energy             -55.440827029405 Eh    ::
         :: total w/o Gsasa/hb       -55.437750008149 Eh    ::
         :: gradient norm              0.000352087495 Eh/a0 ::
         :: HOMO-LUMO gap              2.557208835357 eV    ::
         ::.................................................::
         :: SCC energy               -56.293260637339 Eh    ::
         :: -> isotropic ES            0.091818693144 Eh    ::
         :: -> anisotropic ES         -0.005657467910 Eh    ::
         :: -> anisotropic XC          0.026025747643 Eh    ::
         :: -> dispersion             -0.040228153467 Eh    ::
         :: -> Gsolv                  -0.023611321283 Eh    ::
         ::    -> Gelec               -0.020534300026 Eh    ::
         ::    -> Gsasa               -0.003077021256 Eh    ::
         ::    -> Ghb                  0.000000000000 Eh    ::
         ::    -> Gshift               0.000000000000 Eh    ::
         :: repulsion energy           0.852433607933 Eh    ::
         :: add. restraining           0.000000000000 Eh    ::
         :: total charge               0.000000000000 e     ::
         :::::::::::::::::::::::::::::::::::::::::::::::::::::


Property printout bound to 'properties.out'

           -------------------------------------------------
          | TOTAL ENERGY              -55.440827029405 Eh   |
          | GRADIENT NORM               0.000352087495 Eh/α |
          | HOMO-LUMO GAP               2.557208835357 eV   |
           -------------------------------------------------

------------------------------------------------------------------------
 * finished run on 2024/12/21 at 19:12:58.301     
------------------------------------------------------------------------
 total:
 * wall-time:     0 d,  0 h,  0 min,  0.463 sec
 *  cpu-time:     0 d,  0 h,  0 min,  0.276 sec
 * ratio c/w:     0.595 speedup
 SCF:
 * wall-time:     0 d,  0 h,  0 min,  0.324 sec
 *  cpu-time:     0 d,  0 h,  0 min,  0.261 sec
 * ratio c/w:     0.806 speedup


-------------------------   --------------------
FINAL SINGLE POINT ENERGY       -55.440827029410
-------------------------   --------------------


-------------
DIPOLE MOMENT
-------------
                                X             Y             Z
Total Dipole Moment    :      0.66200       0.06300       1.10000
                        -----------------------------------------
Magnitude (a.u.)       :      1.28538
Magnitude (Debye)      :      3.26719

                                *** OPTIMIZATION RUN DONE ***

		     ------------------------------
			                   _   
			                  | |  
			  __ _  ___   __ _| |_ 
			 / _` |/ _ \ / _` | __|
			| (_| | (_) | (_| | |_ 
			 \__, |\___/ \__,_|\__|
			 __/ |                
			|___/                 

		      A Global Optimizer Algorithm
		     ------------------------------

Global parameters
-----------------
  GOAT version                               ... default
  Minimum global steps                       ... 3
  Number of base workers                     ... 4
  Split workers by                           ... 2
  Final number of workers                    ... 8
  Number of available CPUs                   ... 1
  Parameter list (worker : temperature)      ...  0 : 2903.97,  1 : 1451.98, 
                                                  2 :  725.99,  3 :  363.00, 
                                                  4 : 2903.97,  5 : 1451.98, 
                                                  6 :  725.99,  7 :  363.00 
  GradComp (mean : sigma)                    ... 1.00 : 0.50
  Number of fragments                        ... 1
  Number of atoms                            ... 34
  Flexibility parameter                      ... 0.19
  Optimizations per global step              ... 144
  Optimizations per worker                   ... 18

Filtering criteria
------------------
  RMSD                                       ... 0.125 Angs (atom. pos.)
  EnDiff                                     ... 0.100 kcal/mol
  RotConst                                   ... 1.00-2.50 %
  Maximum Conf. Energy                       ... 6.000 kcal/mol

Thermodynamics
--------------
  Ensemble temperature                       ... 298.15 K
  Degeneracy of conformers                   ... 1
  *No rotamers will be included in Gconf

------------------------------------------------------------------------------
   Iter  MinTemp     MaxEn       GradComp    NOpt   NProcs    Output
------------------------------------------------------------------------------
   0     2903.97    102.00    1.00 : 0.50      18        1    HBQ_ES-GOAT.goat.0.0.out
   1     1451.98    102.00    1.00 : 0.50      18        1    HBQ_ES-GOAT.goat.0.1.out
   2      725.99    102.00    1.00 : 0.50      18        1    HBQ_ES-GOAT.goat.0.2.out
   3      363.00    102.00    1.00 : 0.50      18        1    HBQ_ES-GOAT.goat.0.3.out
   4     2903.97    102.00    1.00 : 0.50      18        1    HBQ_ES-GOAT.goat.0.4.out
   5     1451.98    102.00    1.00 : 0.50      18        1    HBQ_ES-GOAT.goat.0.5.out
   6      725.99    102.00    1.00 : 0.50      18        1    HBQ_ES-GOAT.goat.0.6.out
   7      363.00    102.00    1.00 : 0.50      18        1    HBQ_ES-GOAT.goat.0.7.out

			     GOAT Global Iter 1
		Iter    Min En       Sconf       Gconf   
		        Hartree      cal/(molK)  kcal/mol
		=========================================

		   1    -55.440827   1.843       -0.406

   0     2903.97    102.00    1.00 : 0.50      18        1    HBQ_ES-GOAT.goat.1.0.out
   1     1451.98    102.00    1.00 : 0.50      18        1    HBQ_ES-GOAT.goat.1.1.out
   2      725.99    102.00    1.00 : 0.50      18        1    HBQ_ES-GOAT.goat.1.2.out
   3      363.00    102.00    1.00 : 0.50      18        1    HBQ_ES-GOAT.goat.1.3.out
   4     2903.97    102.00    1.00 : 0.50      18        1    HBQ_ES-GOAT.goat.1.4.out
   5     1451.98    102.00    1.00 : 0.50      18        1    HBQ_ES-GOAT.goat.1.5.out
   6      725.99    102.00    1.00 : 0.50      18        1    HBQ_ES-GOAT.goat.1.6.out
   7      363.00    102.00    1.00 : 0.50      18        1    HBQ_ES-GOAT.goat.1.7.out

			     GOAT Global Iter 2
		Iter    Min En       Sconf       Gconf   
		        Hartree      cal/(molK)  kcal/mol
		=========================================

		   1    -55.440827   1.843       -0.406
		   2    -55.440877   1.838       -0.395

   0     2903.97    102.00    1.00 : 0.50      18        1    HBQ_ES-GOAT.goat.2.0.out
   1     1451.98    102.00    1.00 : 0.50      18        1    HBQ_ES-GOAT.goat.2.1.out
   2      725.99    102.00    1.00 : 0.50      18        1    HBQ_ES-GOAT.goat.2.2.out
   3      363.00    102.00    1.00 : 0.50      18        1    HBQ_ES-GOAT.goat.2.3.out
   4     2903.97    102.00    1.00 : 0.50      18        1    HBQ_ES-GOAT.goat.2.4.out
   5     1451.98    102.00    1.00 : 0.50      18        1    HBQ_ES-GOAT.goat.2.5.out
   6      725.99    102.00    1.00 : 0.50      18        1    HBQ_ES-GOAT.goat.2.6.out
   7      363.00    102.00    1.00 : 0.50      18        1    HBQ_ES-GOAT.goat.2.7.out

			     GOAT Global Iter 3
		Iter    Min En       Sconf       Gconf   
		        Hartree      cal/(molK)  kcal/mol
		=========================================

		   1    -55.440827   1.843       -0.406
		   2    -55.440877   1.838       -0.395
		   3    -55.440877   1.704       -0.386

		Global minimum found!
		Writing structure to HBQ_ES-GOAT.globalminimum.xyz

		# Final ensemble info #
		Conformer     Energy     Degen.   % total   % cumul.  
		              (kcal/mol)
		------------------------------------------------------
		        0     0.000	     1      52.13      52.13
		        1     0.099	     1      44.08      96.21
		        2     1.986	     1       1.82      98.03
		        3     2.007	     1       1.76      99.79
		        4     3.278	     1       0.21     100.00

		Conformers below 3 kcal/mol: 4
		Lowest energy conformer    : -55.440877 Eh
		Sconf at 298.15 K          :  1.70 cal/(molK)
		Gconf at 298.15 K          : -0.39 kcal/mol

		Writing final ensemble to HBQ_ES-GOAT.finalensemble.xyz

--------------------------------
SUGGESTED CITATIONS FOR THIS RUN
--------------------------------

Below you find a list of papers that are relevant to this ORCA run
We neither can nor want to force you to cite these papers, but we appreciate if you do
You receive ORCA, which is the product of decades of hard work by many enthusiastic individuals, for free
The only thing we kindly ask in return is that you cite our papers,
We deeply appreciate it, if you show your appreciation for ORCA by not just citing the generic ORCA reference.

Please note that relegating all ORCA citations to the supporting information does *not* help us.
SI sections are not indexed - citations you put there will not count into any citation statistics
But we need these citations in order to attract the funding resources that allow us to do what we are doing

Therefore, if you are a happy ORCA user, please consider citing a few of the papers listed below in the main body of your paper

In addition to the list printed below, the program has created the file HBQ_ES-GOAT.bibtex that contains the list in bibtex format
You can import this file easily into all common literature databanks and citation aid programs


List of essential papers. We consider these as the minimum necessary citations

  1. Bannwarth,C.; Ehlert,S.; Grimme,S.
     GFN2-xTB—An Accurate and Broadly Parametrized Self-Consistent Tight-Binding Quantum Chemical Method with Multipole Electrostatics and Density-Dependent Dispersion Contributions
     J. Chem. Theory Comput., 2019 15(3)1652-1671
     doi.org/10.1021/acs.jctc.8b01176
  2. Neese,F.
     Software update: the ORCA program system, version 5.0
     WIRES Comput. Molec. Sci., 2022 12(1)e1606
     doi.org/10.1002/wcms.1606

List of papers to cite with high priority. The work reported in these papers was absolutely
necessary for this run to complete.
Our perspective: the developers of density functionals and basis sets usually get cited in chemistry papers
Good! But without the algorithms to do something with them, the functionals or basis sets would not do anything.
Hence, in our opinion, the algorithm design and method developments papers are equally worthy of getting cited

  1. Neese,F.; Olbrich,G.
     Efficient use of the resolution of the identity approximation in time-dependent density functional calculations with hybrid density functionals
     Chem. Phys. Lett., 2002 362 170-178
     doi.org/10.1016/s0009-2614(02)01053-9
  2. Petrenko,T.; Kossmann,S.; Neese,F.
     Efficient time-dependent density functional theory approximations for hybrid density functionals: Analytical gradients and parallelization
     J. Chem. Phys., 2011 134 054116
     doi.org/10.1063/1.3533441
  3. Bannwarth,C.; Caldeweyher,E.; Ehlert,S.; Hansen,A.; Pracht,P.; Seibert,J.; Spicher,S.; Grimme,S.
     Extended tight-binding quantum chemistry methods
     WIRES Comput. Molec. Sci., 2020 11(2)e1493
     doi.org/10.1002/wcms.1493

List of suggested additional citations. These are papers that are important in the 'surrounding' of 
of this run, or papers that preceded the highly important papers. If you like your results we are grateful for a citation.

  1. Neese,F.
     The ORCA program system
     WIRES Comput. Molec. Sci., 2012 2(1)73-78
     doi.org/10.1002/wcms.81
  2. Neese,F.
     Software update: the ORCA program system, version 4.0
     WIRES Comput. Molec. Sci., 2018 8(1)1-6
     doi.org/10.1002/wcms.1327
  3. Neese,F.; Wennmohs,F.; Becker,U.; Riplinger,C.
     The ORCA quantum chemistry program package
     J. Chem. Phys., 2020 152 Art. No. L224108
     doi.org/10.1063/5.0004608

List of optional additional citations

  1. Neese,F.
     Approximate second-order SCF convergence for spin unrestricted wavefunctions
     Chem. Phys. Lett., 2000 325(1-3)93-98
     doi.org/10.1016/s0009-2614(00)00662-x

Timings for individual modules:

Sum of individual times          ...    15678.771 sec (= 261.313 min)
Geometry relaxation              ...        0.360 sec (=   0.006 min)   0.0 %
GOAT                             ...    15671.804 sec (= 261.197 min) 100.0 %
XTB module                       ...        6.607 sec (=   0.110 min)   0.0 %
                             ****ORCA TERMINATED NORMALLY****
TOTAL RUN TIME: 0 days 4 hours 21 minutes 19 seconds 457 msec
