
                                 *****************
                                 * O   R   C   A *
                                 *****************

                                            #,                                       
                                            ###                                      
                                            ####                                     
                                            #####                                    
                                            ######                                   
                                           ########,                                 
                                     ,,################,,,,,                         
                               ,,#################################,,                 
                          ,,##########################################,,             
                       ,#########################################, ''#####,          
                    ,#############################################,,   '####,        
                  ,##################################################,,,,####,       
                ,###########''''           ''''###############################       
              ,#####''   ,,,,##########,,,,          '''####'''          '####       
            ,##' ,,,,###########################,,,                        '##       
           ' ,,###''''                  '''############,,,                           
         ,,##''                                '''############,,,,        ,,,,,,###''
      ,#''                                            '''#######################'''  
     '                                                          ''''####''''         
             ,#######,   #######,   ,#######,      ##                                
            ,#'     '#,  ##    ##  ,#'     '#,    #''#        ######   ,####,        
            ##       ##  ##   ,#'  ##            #'  '#       #        #'  '#        
            ##       ##  #######   ##           ,######,      #####,   #    #        
            '#,     ,#'  ##    ##  '#,     ,#' ,#      #,         ##   #,  ,#        
             '#######'   ##     ##  '#######'  #'      '#     #####' # '####'        



                  #######################################################
                  #                        -***-                        #
                  #          Department of theory and spectroscopy      #
                  #    Directorship and core code : Frank Neese         #
                  #        Max Planck Institute fuer Kohlenforschung    #
                  #                Kaiser Wilhelm Platz 1               #
                  #                 D-45470 Muelheim/Ruhr               #
                  #                      Germany                        #
                  #                                                     #
                  #                  All rights reserved                #
                  #                        -***-                        #
                  #######################################################


                         Program Version 5.0.4 -  RELEASE  -


 With contributions from (in alphabetic order):
   Daniel Aravena         : Magnetic Suceptibility
   Michael Atanasov       : Ab Initio Ligand Field Theory (pilot matlab implementation)
   Alexander A. Auer      : GIAO ZORA, VPT2 properties, NMR spectrum
   Ute Becker             : Parallelization
   Giovanni Bistoni       : ED, misc. LED, open-shell LED, HFLD
   Martin Brehm           : Molecular dynamics
   Dmytro Bykov           : SCF Hessian
   Vijay G. Chilkuri      : MRCI spin determinant printing, contributions to CSF-ICE
   Dipayan Datta          : RHF DLPNO-CCSD density
   Achintya Kumar Dutta   : EOM-CC, STEOM-CC
   Dmitry Ganyushin       : Spin-Orbit,Spin-Spin,Magnetic field MRCI
   Miquel Garcia          : C-PCM and meta-GGA Hessian, CC/C-PCM, Gaussian charge scheme
   Yang Guo               : DLPNO-NEVPT2, F12-NEVPT2, CIM, IAO-localization
   Andreas Hansen         : Spin unrestricted coupled pair/coupled cluster methods
   Benjamin Helmich-Paris : MC-RPA, TRAH-SCF, COSX integrals
   Lee Huntington         : MR-EOM, pCC
   Robert Izsak           : Overlap fitted RIJCOSX, COSX-SCS-MP3, EOM
   Marcus Kettner         : VPT2
   Christian Kollmar      : KDIIS, OOCD, Brueckner-CCSD(T), CCSD density, CASPT2, CASPT2-K
   Simone Kossmann        : Meta GGA functionals, TD-DFT gradient, OOMP2, MP2 Hessian
   Martin Krupicka        : Initial AUTO-CI
   Lucas Lang             : DCDCAS
   Marvin Lechner         : AUTO-CI (C++ implementation), FIC-MRCC
   Dagmar Lenk            : GEPOL surface, SMD
   Dimitrios Liakos       : Extrapolation schemes; Compound Job, initial MDCI parallelization
   Dimitrios Manganas     : Further ROCIS development; embedding schemes
   Dimitrios Pantazis     : SARC Basis sets
   Anastasios Papadopoulos: AUTO-CI, single reference methods and gradients
   Taras Petrenko         : DFT Hessian,TD-DFT gradient, ASA, ECA, R-Raman, ABS, FL, XAS/XES, NRVS
   Peter Pinski           : DLPNO-MP2, DLPNO-MP2 Gradient
   Christoph Reimann      : Effective Core Potentials
   Marius Retegan         : Local ZFS, SOC
   Christoph Riplinger    : Optimizer, TS searches, QM/MM, DLPNO-CCSD(T), (RO)-DLPNO pert. Triples
   Tobias Risthaus        : Range-separated hybrids, TD-DFT gradient, RPA, STAB
   Michael Roemelt        : Original ROCIS implementation
   Masaaki Saitow         : Open-shell DLPNO-CCSD energy and density
   Barbara Sandhoefer     : DKH picture change effects
   Avijit Sen             : IP-ROCIS
   Kantharuban Sivalingam : CASSCF convergence, NEVPT2, FIC-MRCI
   Bernardo de Souza      : ESD, SOC TD-DFT
   Georgi Stoychev        : AutoAux, RI-MP2 NMR, DLPNO-MP2 response
   Willem Van den Heuvel  : Paramagnetic NMR
   Boris Wezisla          : Elementary symmetry handling
   Frank Wennmohs         : Technical directorship


 We gratefully acknowledge several colleagues who have allowed us to
 interface, adapt or use parts of their codes:
   Stefan Grimme, W. Hujo, H. Kruse, P. Pracht,  : VdW corrections, initial TS optimization,
                  C. Bannwarth, S. Ehlert          DFT functionals, gCP, sTDA/sTD-DF
   Ed Valeev, F. Pavosevic, A. Kumar             : LibInt (2-el integral package), F12 methods
   Garnet Chan, S. Sharma, J. Yang, R. Olivares  : DMRG
   Ulf Ekstrom                                   : XCFun DFT Library
   Mihaly Kallay                                 : mrcc  (arbitrary order and MRCC methods)
   Jiri Pittner, Ondrej Demel                    : Mk-CCSD
   Frank Weinhold                                : gennbo (NPA and NBO analysis)
   Christopher J. Cramer and Donald G. Truhlar   : smd solvation model
   Lars Goerigk                                  : TD-DFT with DH, B97 family of functionals
   V. Asgeirsson, H. Jonsson                     : NEB implementation
   FAccTs GmbH                                   : IRC, NEB, NEB-TS, DLPNO-Multilevel, CI-OPT
                                                   MM, QMMM, 2- and 3-layer-ONIOM, Crystal-QMMM,
                                                   LR-CPCM, SF, NACMEs, symmetry and pop. for TD-DFT,
                                                   nearIR, NL-DFT gradient (VV10), updates on ESD,
                                                   ML-optimized integration grids
   S Lehtola, MJT Oliveira, MAL Marques          : LibXC Library
   Liviu Ungur et al                             : ANISO software


 Your calculation uses the libint2 library for the computation of 2-el integrals
 For citations please refer to: http://libint.valeyev.net

 Your ORCA version has been built with support for libXC version: 5.1.0
 For citations please refer to: https://tddft.org/programs/libxc/

 This ORCA versions uses:
   CBLAS   interface :  Fast vector & matrix operations
   LAPACKE interface :  Fast linear algebra routines
   SCALAPACK package :  Parallel linear algebra routines
   Shared memory     :  Shared parallel matrices
   BLAS/LAPACK       :  OpenBLAS 0.3.15  USE64BITINT DYNAMIC_ARCH NO_AFFINITY Sandybridge SINGLE_THREADED
        Core in use  :  Sandybridge
   Copyright (c) 2011-2014, The OpenBLAS Project


================================================================================

----- Orbital basis set information -----
Your calculation utilizes the basis: def2-TZVP(-f)
   F. Weigend and R. Ahlrichs, Phys. Chem. Chem. Phys. 7, 3297 (2005).

----- AuxJ basis set information -----
Your calculation utilizes the auxiliary basis: def2/J
   F. Weigend, Phys. Chem. Chem. Phys. 8, 1057 (2006).

----- AuxC basis set information -----
Your calculation utilizes the auxiliary basis: def2-TZVP/C
  H-La, Hf-Rn : A. Hellweg, C. Hattig, S. Hofener and W. Klopper, Theor. Chem. Acc. 117, 587 (2007).
        Ce-Lu : J. Chmela and M. E. Harding, Mol. Phys. (2018).

================================================================================
                                        WARNINGS
                       Please study these warnings very carefully!
================================================================================

INFO   : Checking CIS options ...

WARNING: (CIS/TDDFT): Analytic excited state gradients requested
  ===> : turning on equilibrium dielectric conditions.

WARNING: Analytical Frequencies for this method not available!
  ===> : Switching to Numerical Frequencies!

WARNING: Geometry Optimization
  ===> : Switching off AutoStart
         For restart on a previous wavefunction, please use MOREAD

WARNING: CIS/ROCIS methods need fully converged wavefunctions
  ===> : Setting SCFConvForced true
         You can overwrite this default with %scf ConvForced false 


INFO   : the flag for use of the SHARK integral package has been found!

================================================================================
                                       INPUT FILE
================================================================================
NAME = hbq_s1.inp
|  1> ! B3LYP/G OPT Freq Def2-TZVP(-f) Def2-TZVP/C Def2/J RIJCOSX TightSCF CPCM(Water) AllPop SOSCF
|  2> %maxcore 3000
|  3> 
|  4> %scf
|  5>        MaxIter 125
|  6>        CNVDIIS 1
|  7>        CNVSOSCF 1 
|  8> end
|  9> 
| 10> %tddft
| 11>     NRoots 1
| 12>     IRoot 1
| 13> end 
| 14> 
| 15> * xyz 0 1
| 16>    C       -3.31065        0.03709       -0.59095
| 17>    C       -2.95550       -1.29476       -0.74846
| 18>    C       -1.62830       -1.67132       -0.60267
| 19>    C       -2.34974        1.00114       -0.27693
| 20>    C       -0.98697        0.64104       -0.13176
| 21>    O       -2.80434        2.30557       -0.16605
| 22>    C       -0.65316       -0.71947       -0.30083
| 23>    C        0.66268       -1.15636       -0.17245
| 24>    C        1.66999       -0.25468        0.12861
| 25>    C        0.04392        1.56409        0.18416
| 26>    C        1.36748        1.09093        0.30776
| 27>    N       -0.20478        2.88644        0.37860
| 28>    C        0.79993        3.73588        0.67832
| 29>    C        2.11836        3.31823        0.80577
| 30>    C        2.40510        1.97268        0.61781
| 31>    C       -3.85249        2.77775        0.55453
| 32>    O       -4.52616        3.70322        0.14759
| 33>    N       -4.06536        2.21490        1.78096
| 34>    C       -5.24828        2.58682        2.57427
| 35>    C       -3.06358        1.44177        2.53867
| 36>    H       -2.06159        1.81923        2.31845
| 37>    H       -3.12976        0.38587        2.26527
| 38>    H       -3.23728        1.54266        3.61341
| 39>    H       -6.11571        2.69417        1.91690
| 40>    H       -5.05935        3.53714        3.08075
| 41>    H       -5.46568        1.81376        3.31634
| 42>    H       -1.35573       -2.71669       -0.73055
| 43>    H       -4.35066        0.32804       -0.71812
| 44>    H       -3.71214       -2.03697       -0.99031
| 45>    H        0.91093       -2.20682       -0.30733
| 46>    H        2.69410       -0.60782        0.22617
| 47>    H        0.51861        4.77819        0.81518
| 48>    H        2.90559        4.02785        1.04752
| 49>    H        3.42868        1.61826        0.71375
| 50> *
| 51> 
| 52>                          ****END OF INPUT****
================================================================================

                       *****************************
                       * Geometry Optimization Run *
                       *****************************

Geometry optimization settings:
Update method            Update   .... BFGS
Choice of coordinates    CoordSys .... Z-matrix Internals
Initial Hessian          InHess   .... Almoef's Model

Convergence Tolerances:
Energy Change            TolE     ....  5.0000e-06 Eh
Max. Gradient            TolMAXG  ....  3.0000e-04 Eh/bohr
RMS Gradient             TolRMSG  ....  1.0000e-04 Eh/bohr
Max. Displacement        TolMAXD  ....  4.0000e-03 bohr
RMS Displacement         TolRMSD  ....  2.0000e-03 bohr
Strict Convergence                ....  False
------------------------------------------------------------------------------
                        ORCA OPTIMIZATION COORDINATE SETUP
------------------------------------------------------------------------------

The optimization will be done in new redundant internal coordinates
Making redundant internal coordinates   ...  (new redundants) done
Evaluating the initial hessian          ...  (Almloef) done
Evaluating the coordinates              ...  done
Calculating the B-matrix                .... done
Calculating the G-matrix                .... done
Diagonalizing the G-matrix              .... done
Small eigenvalue found = 3.875e-03
Small eigenvalue found = 5.063e-03
Small eigenvalue found = 1.062e-02
Small eigenvalue found = 2.888e-02
The first mode is                       ....   79
The number of degrees of freedom        ....   96

    -----------------------------------------------------------------
                    Redundant Internal Coordinates


    -----------------------------------------------------------------
         Definition                    Initial Value    Approx d2E/dq
    -----------------------------------------------------------------
      1. B(C   1,C   0)                  1.3874         0.630887   
      2. B(C   2,C   1)                  1.3873         0.631099   
      3. B(C   3,C   0)                  1.3969         0.609143   
      4. B(C   4,C   3)                  1.4170         0.565799   
      5. B(O   5,C   3)                  1.3858         0.568259   
      6. B(C   6,C   4)                  1.4110         0.578348   
      7. B(C   6,C   2)                  1.3957         0.611813   
      8. B(C   7,C   6)                  1.3924         0.619303   
      9. B(C   8,C   7)                  1.3850         0.636284   
     10. B(C   9,C   4)                  1.4194         0.560930   
     11. B(C  10,C   9)                  1.4110         0.578372   
     12. B(C  10,C   8)                  1.3908         0.623005   
     13. B(N  11,C   9)                  1.3595         0.625922   
     14. B(C  12,N  11)                  1.3494         0.649657   
     15. B(C  13,C  12)                  1.3889         0.627418   
     16. B(C  14,C  13)                  1.3885         0.628148   
     17. B(C  14,C  10)                  1.3965         0.610008   
     18. B(C  15,O   5)                  1.3568         0.632269   
     19. B(O  16,C  15)                  1.2149         1.064812   
     20. B(N  17,C  15)                  1.3661         0.610939   
     21. B(C  18,N  17)                  1.4721         0.413954   
     22. B(C  19,N  17)                  1.4749         0.409615   
     23. B(H  20,C  19)                  1.0931         0.355969   
     24. B(H  21,C  19)                  1.0927         0.356511   
     25. B(H  22,C  19)                  1.0934         0.355694   
     26. B(H  23,C  18)                  1.0937         0.355290   
     27. B(H  24,C  18)                  1.0933         0.355749   
     28. B(H  25,C  18)                  1.0934         0.355613   
     29. B(H  26,C   2)                  1.0879         0.362938   
     30. B(H  27,C   0)                  1.0874         0.363552   
     31. B(H  28,C   1)                  1.0871         0.363905   
     32. B(H  29,C   7)                  1.0878         0.363036   
     33. B(H  30,C   8)                  1.0877         0.363195   
     34. B(H  31,C  12)                  1.0882         0.362426   
     35. B(H  32,C  13)                  1.0871         0.363989   
     36. B(H  33,C  14)                  1.0874         0.363497   
     37. A(C   1,C   0,C   3)          120.7938         0.434046   
     38. A(C   3,C   0,H  27)          119.9695         0.352424   
     39. A(C   1,C   0,H  27)          119.2364         0.354524   
     40. A(C   2,C   1,H  28)          120.2595         0.354602   
     41. A(C   0,C   1,C   2)          119.5744         0.436822   
     42. A(C   0,C   1,H  28)          120.1650         0.354582   
     43. A(C   1,C   2,H  26)          119.2217         0.354442   
     44. A(C   1,C   2,C   6)          120.3994         0.434414   
     45. A(C   6,C   2,H  26)          120.3784         0.352584   
     46. A(C   4,C   3,O   5)          123.1265         0.417667   
     47. A(C   0,C   3,C   4)          120.6110         0.425646   
     48. A(C   0,C   3,O   5)          116.2274         0.423204   
     49. A(C   3,C   4,C   9)          123.7830         0.419421   
     50. A(C   3,C   4,C   6)          117.4047         0.421716   
     51. A(C   6,C   4,C   9)          118.8091         0.421066   
     52. A(C   3,O   5,C  15)          128.5718         0.423261   
     53. A(C   4,C   6,C   7)          121.0007         0.428591   
     54. A(C   2,C   6,C   7)          117.7883         0.432942   
     55. A(C   2,C   6,C   4)          121.2110         0.427657   
     56. A(C   6,C   7,H  29)          120.4797         0.353327   
     57. A(C   6,C   7,C   8)          120.2028         0.436008   
     58. A(C   8,C   7,H  29)          119.3175         0.354950   
     59. A(C   7,C   8,H  30)          119.5318         0.354977   
     60. A(C  10,C   8,H  30)          120.4892         0.353710   
     61. A(C   7,C   8,C  10)          119.9787         0.436477   
     62. A(C   4,C   9,C  10)          118.8627         0.421069   
     63. A(C  10,C   9,N  11)          119.0278         0.426611   
     64. A(C   4,C   9,N  11)          122.1084         0.424279   
     65. A(C   9,C  10,C  14)          120.3097         0.427433   
     66. A(C   8,C  10,C  14)          118.5464         0.433176   
     67. A(C   8,C  10,C   9)          121.1437         0.429052   
     68. A(C   9,N  11,C  12)          120.5213         0.432758   
     69. A(N  11,C  12,H  31)          116.0011         0.353906   
     70. A(N  11,C  12,C  13)          122.5405         0.435797   
     71. A(C  13,C  12,H  31)          121.4583         0.354006   
     72. A(C  12,C  13,H  32)          120.7675         0.354264   
     73. A(C  12,C  13,C  14)          118.3602         0.436020   
     74. A(C  14,C  13,H  32)          120.8722         0.354334   
     75. A(C  10,C  14,H  33)          120.8754         0.352500   
     76. A(C  10,C  14,C  13)          119.2395         0.433817   
     77. A(C  13,C  14,H  33)          119.8851         0.354253   
     78. A(O  16,C  15,N  17)          121.8820         0.471332   
     79. A(O   5,C  15,N  17)          116.9872         0.428785   
     80. A(O   5,C  15,O  16)          121.0375         0.474313   
     81. A(C  18,N  17,C  19)          113.6644         0.371015   
     82. A(C  15,N  17,C  19)          124.8433         0.396988   
     83. A(C  15,N  17,C  18)          120.3268         0.397723   
     84. A(H  24,C  18,H  25)          109.5426         0.289714   
     85. A(H  23,C  18,H  25)          108.6407         0.289656   
     86. A(N  17,C  18,H  25)          110.2971         0.327191   
     87. A(H  23,C  18,H  24)          109.2803         0.289673   
     88. A(N  17,C  18,H  24)          109.2930         0.327211   
     89. A(N  17,C  18,H  23)          109.7690         0.327141   
     90. A(H  21,C  19,H  22)          108.9950         0.289822   
     91. A(H  20,C  19,H  22)          108.1669         0.289753   
     92. A(N  17,C  19,H  22)          110.4083         0.326635   
     93. A(H  20,C  19,H  21)          109.8020         0.289857   
     94. A(N  17,C  19,H  21)          109.6848         0.326759   
     95. A(N  17,C  19,H  20)          109.7598         0.326677   
     96. D(C   2,C   1,C   0,H  27)    179.2769         0.027602   
     97. D(H  28,C   1,C   0,H  27)     -0.3671         0.027602   
     98. D(C   2,C   1,C   0,C   3)     -0.5150         0.027602   
     99. D(H  28,C   1,C   0,C   3)    179.8410         0.027602   
    100. D(H  26,C   2,C   1,H  28)     -0.1625         0.027621   
    101. D(H  26,C   2,C   1,C   0)   -179.8062         0.027621   
    102. D(C   6,C   2,C   1,C   0)     -0.0646         0.027621   
    103. D(C   6,C   2,C   1,H  28)    179.5790         0.027621   
    104. D(O   5,C   3,C   0,C   1)    178.8388         0.025623   
    105. D(O   5,C   3,C   0,H  27)     -0.9516         0.025623   
    106. D(C   4,C   3,C   0,C   1)      0.9274         0.025623   
    107. D(C   4,C   3,C   0,H  27)   -178.8629         0.025623   
    108. D(C   6,C   4,C   3,O   5)   -178.4967         0.021946   
    109. D(C   9,C   4,C   3,C   0)    179.9222         0.021946   
    110. D(C   6,C   4,C   3,C   0)     -0.7341         0.021946   
    111. D(C   9,C   4,C   3,O   5)      2.1596         0.021946   
    112. D(C  15,O   5,C   3,C   4)   -131.7829         0.023432   
    113. D(C  15,O   5,C   3,C   0)     50.3637         0.023432   
    114. D(C   7,C   6,C   4,C   9)     -0.5028         0.022974   
    115. D(C   7,C   6,C   4,C   3)   -179.8802         0.022974   
    116. D(C   2,C   6,C   4,C   9)    179.5383         0.022974   
    117. D(C   2,C   6,C   4,C   3)      0.1608         0.022974   
    118. D(C   7,C   6,C   2,H  26)      0.0151         0.025861   
    119. D(C   7,C   6,C   2,C   1)   -179.7235         0.025861   
    120. D(C   4,C   6,C   2,H  26)    179.9753         0.025861   
    121. D(C   4,C   6,C   2,C   1)      0.2367         0.025861   
    122. D(H  29,C   7,C   6,C   4)   -179.8266         0.026536   
    123. D(H  29,C   7,C   6,C   2)      0.1337         0.026536   
    124. D(C   8,C   7,C   6,C   4)      0.1556         0.026536   
    125. D(C   8,C   7,C   6,C   2)   -179.8841         0.026536   
    126. D(C  10,C   8,C   7,C   6)      0.2042         0.028107   
    127. D(H  30,C   8,C   7,H  29)     -0.0054         0.028107   
    128. D(H  30,C   8,C   7,C   6)   -179.9878         0.028107   
    129. D(C  10,C   8,C   7,H  29)   -179.8134         0.028107   
    130. D(N  11,C   9,C   4,C   6)   -179.1274         0.021555   
    131. D(C  10,C   9,C   4,C   6)      0.4894         0.021555   
    132. D(C  10,C   9,C   4,C   3)    179.8244         0.021555   
    133. D(N  11,C   9,C   4,C   3)      0.2076         0.021555   
    134. D(C  14,C  10,C   9,N  11)     -0.3658         0.022976   
    135. D(C  14,C  10,C   9,C   4)   -179.9946         0.022976   
    136. D(C   8,C  10,C   9,N  11)    179.4858         0.022976   
    137. D(C   8,C  10,C   9,C   4)     -0.1430         0.022976   
    138. D(C  14,C  10,C   8,H  30)     -0.1607         0.026874   
    139. D(C  14,C  10,C   8,C   7)    179.6454         0.026874   
    140. D(C   9,C  10,C   8,H  30)    179.9851         0.026874   
    141. D(C   9,C  10,C   8,C   7)     -0.2088         0.026874   
    142. D(C  12,N  11,C   9,C  10)      0.3544         0.028784   
    143. D(C  12,N  11,C   9,C   4)    179.9706         0.028784   
    144. D(H  31,C  12,N  11,C   9)    179.7946         0.031189   
    145. D(C  13,C  12,N  11,C   9)     -0.1298         0.031189   
    146. D(H  32,C  13,C  12,H  31)      0.0357         0.027280   
    147. D(H  32,C  13,C  12,N  11)    179.9561         0.027280   
    148. D(C  14,C  13,C  12,H  31)    179.9876         0.027280   
    149. D(C  14,C  13,C  12,N  11)     -0.0920         0.027280   
    150. D(H  33,C  14,C  13,H  32)      0.0810         0.027347   
    151. D(H  33,C  14,C  13,C  12)   -179.8709         0.027347   
    152. D(C  10,C  14,C  13,H  32)   -179.9713         0.027347   
    153. D(C  10,C  14,C  13,C  12)      0.0769         0.027347   
    154. D(H  33,C  14,C  10,C   9)   -179.9041         0.025700   
    155. D(H  33,C  14,C  10,C   8)      0.2405         0.025700   
    156. D(C  13,C  14,C  10,C   9)      0.1487         0.025700   
    157. D(C  13,C  14,C  10,C   8)   -179.7068         0.025700   
    158. D(O  16,C  15,O   5,C   3)   -145.2882         0.029415   
    159. D(N  17,C  15,O   5,C   3)     38.1596         0.029415   
    160. D(C  19,N  17,C  15,O  16)   -158.0225         0.030155   
    161. D(C  19,N  17,C  15,O   5)     18.4984         0.030155   
    162. D(C  18,N  17,C  15,O  16)      8.8377         0.030155   
    163. D(C  18,N  17,C  15,O   5)   -174.6413         0.030155   
    164. D(H  25,C  18,N  17,C  19)    -32.6315         0.014615   
    165. D(H  25,C  18,N  17,C  15)    159.1219         0.014615   
    166. D(H  24,C  18,N  17,C  19)     87.8557         0.014615   
    167. D(H  24,C  18,N  17,C  15)    -80.3909         0.014615   
    168. D(H  23,C  18,N  17,C  19)   -152.3056         0.014615   
    169. D(H  23,C  18,N  17,C  15)     39.4478         0.014615   
    170. D(H  22,C  19,N  17,C  18)    -17.0532         0.014314   
    171. D(H  22,C  19,N  17,C  15)    150.5762         0.014314   
    172. D(H  21,C  19,N  17,C  18)    103.0755         0.014314   
    173. D(H  21,C  19,N  17,C  15)    -89.2951         0.014314   
    174. D(H  20,C  19,N  17,C  18)   -136.2057         0.014314   
    175. D(H  20,C  19,N  17,C  15)     31.4237         0.014314   
    -----------------------------------------------------------------

Number of atoms                         .... 34
Number of degrees of freedom            .... 175

         *************************************************************
         *                GEOMETRY OPTIMIZATION CYCLE   1            *
         *************************************************************
---------------------------------
CARTESIAN COORDINATES (ANGSTROEM)
---------------------------------
  C     -3.310650    0.037090   -0.590950
  C     -2.955500   -1.294760   -0.748460
  C     -1.628300   -1.671320   -0.602670
  C     -2.349740    1.001140   -0.276930
  C     -0.986970    0.641040   -0.131760
  O     -2.804340    2.305570   -0.166050
  C     -0.653160   -0.719470   -0.300830
  C      0.662680   -1.156360   -0.172450
  C      1.669990   -0.254680    0.128610
  C      0.043920    1.564090    0.184160
  C      1.367480    1.090930    0.307760
  N     -0.204780    2.886440    0.378600
  C      0.799930    3.735880    0.678320
  C      2.118360    3.318230    0.805770
  C      2.405100    1.972680    0.617810
  C     -3.852490    2.777750    0.554530
  O     -4.526160    3.703220    0.147590
  N     -4.065360    2.214900    1.780960
  C     -5.248280    2.586820    2.574270
  C     -3.063580    1.441770    2.538670
  H     -2.061590    1.819230    2.318450
  H     -3.129760    0.385870    2.265270
  H     -3.237280    1.542660    3.613410
  H     -6.115710    2.694170    1.916900
  H     -5.059350    3.537140    3.080750
  H     -5.465680    1.813760    3.316340
  H     -1.355730   -2.716690   -0.730550
  H     -4.350660    0.328040   -0.718120
  H     -3.712140   -2.036970   -0.990310
  H      0.910930   -2.206820   -0.307330
  H      2.694100   -0.607820    0.226170
  H      0.518610    4.778190    0.815180
  H      2.905590    4.027850    1.047520
  H      3.428680    1.618260    0.713750

----------------------------
CARTESIAN COORDINATES (A.U.)
----------------------------
  NO LB      ZA    FRAG     MASS         X           Y           Z
   0 C     6.0000    0    12.011   -6.256222    0.070090   -1.116734
   1 C     6.0000    0    12.011   -5.585086   -2.446742   -1.414384
   2 C     6.0000    0    12.011   -3.077041   -3.158337   -1.138881
   3 C     6.0000    0    12.011   -4.440365    1.891880   -0.523322
   4 C     6.0000    0    12.011   -1.865103    1.211390   -0.248990
   5 O     8.0000    0    15.999   -5.299435    4.356896   -0.313789
   6 C     6.0000    0    12.011   -1.234294   -1.359601   -0.568486
   7 C     6.0000    0    12.011    1.252284   -2.185204   -0.325883
   8 C     6.0000    0    12.011    3.155824   -0.481275    0.243038
   9 C     6.0000    0    12.011    0.082997    2.955702    0.348012
  10 C     6.0000    0    12.011    2.584163    2.061559    0.581582
  11 N     7.0000    0    14.007   -0.386978    5.454581    0.715450
  12 C     6.0000    0    12.011    1.511649    7.059790    1.281839
  13 C     6.0000    0    12.011    4.003120    6.270546    1.522685
  14 C     6.0000    0    12.011    4.544980    3.727825    1.167492
  15 C     6.0000    0    12.011   -7.280151    5.249187    1.047910
  16 O     8.0000    0    15.999   -8.553203    6.998072    0.278905
  17 N     7.0000    0    14.007   -7.682417    4.185554    3.365527
  18 C     6.0000    0    12.011   -9.917812    4.888381    4.864665
  19 C     6.0000    0    12.011   -5.789327    2.724550    4.797391
  20 H     1.0000    0     1.008   -3.895841    3.437846    4.381236
  21 H     1.0000    0     1.008   -5.914389    0.729189    4.280740
  22 H     1.0000    0     1.008   -6.117573    2.915205    6.828355
  23 H     1.0000    0     1.008  -11.557017    5.091243    3.622416
  24 H     1.0000    0     1.008   -9.560786    6.684226    5.821774
  25 H     1.0000    0     1.008  -10.328638    3.427510    6.266974
  26 H     1.0000    0     1.008   -2.561958   -5.133800   -1.380539
  27 H     1.0000    0     1.008   -8.221556    0.619906   -1.357050
  28 H     1.0000    0     1.008   -7.014928   -3.849315   -1.871415
  29 H     1.0000    0     1.008    1.721408   -4.170285   -0.580770
  30 H     1.0000    0     1.008    5.091111   -1.148613    0.427399
  31 H     1.0000    0     1.008    0.980031    9.029471    1.540467
  32 H     1.0000    0     1.008    5.490769    7.611533    1.979526
  33 H     1.0000    0     1.008    6.479266    3.058068    1.348792

--------------------------------
INTERNAL COORDINATES (ANGSTROEM)
--------------------------------
 C      0   0   0     0.000000000000     0.00000000     0.00000000
 C      1   0   0     1.387359126218     0.00000000     0.00000000
 C      2   1   0     1.387267817582   119.57444528     0.00000000
 C      1   2   3     1.396906937129   120.79377355   359.48499047
 C      4   1   2     1.416999792449   120.61096527     0.92744231
 O      4   1   2     1.385818588164   116.22742294   178.83875242
 C      3   2   1     1.395716241827   120.39943545   359.93541288
 C      7   3   2     1.392404108763   117.78828259   180.27650464
 C      8   7   3     1.385040570561   120.20280955   180.11589423
 C      5   4   1     1.419352296296   123.78299208   179.92224595
 C      9   8   7     1.390781540969   119.97866498     0.20421253
 N     10   5   4     1.359510252297   122.10844276     0.20760706
 C     12  10   5     1.349378588870   120.52128250   179.97063430
 C     13  12  10     1.388860212512   122.54054529   359.87015798
 C     14  13  12     1.388543694559   118.36022297   359.90798706
 C      6   4   1     1.356763763999   128.57179486    50.36367130
 O     16   6   4     1.214877011635   121.03751791   214.71183932
 N     16   6   4     1.366105524584   116.98718731    38.15960892
 C     18  16   6     1.472061469131   120.32678335   185.35865153
 C     18  16   6     1.474929696426   124.84327516    18.49841429
 H     20  18  16     1.093140823545   109.75981314    31.42367129
 H     20  18  16     1.092726938626   109.68479743   270.70492713
 H     20  18  16     1.093351064252   110.40826889   150.57621547
 H     19  18  16     1.093660890907   109.76903644    39.44784049
 H     19  18  16     1.093309031198   109.29297448   279.60910315
 H     19  18  16     1.093413192028   110.29712202   159.12193525
 H      3   2   1     1.087863105450   119.22169427   180.19382417
 H      1   2   3     1.087402828532   119.23641311   179.27688364
 H      2   1   3     1.087138995805   120.16504274   180.35602428
 H      8   7   3     1.087789910093   120.47969073     0.13370815
 H      9   8   7     1.087670494819   119.53182462   180.01220091
 H     13  12  10     1.088247094230   116.00109159   179.79460059
 H     14  13  12     1.087076206988   120.76754017   179.95605832
 H     15  14  13     1.087443808387   119.88512386   180.12907656

---------------------------
INTERNAL COORDINATES (A.U.)
---------------------------
 C      0   0   0     0.000000000000     0.00000000     0.00000000
 C      1   0   0     2.621728797948     0.00000000     0.00000000
 C      2   1   0     2.621556249633   119.57444528     0.00000000
 C      1   2   3     2.639771545749   120.79377355   359.48499047
 C      4   1   2     2.677741539552   120.61096527     0.92744231
 O      4   1   2     2.618817602927   116.22742294   178.83875242
 C      3   2   1     2.637521457719   120.39943545   359.93541288
 C      7   3   2     2.631262433309   117.78828259   180.27650464
 C      8   7   3     2.617347362730   120.20280955   180.11589423
 C      5   4   1     2.682187127551   123.78299208   179.92224595
 C      9   8   7     2.628196224544   119.97866498     0.20421253
 N     10   5   4     2.569102053099   122.10844276     0.20760706
 C     12  10   5     2.549955983941   120.52128250   179.97063430
 C     13  12  10     2.624565439948   122.54054529   359.87015798
 C     14  13  12     2.623967307700   118.36022297   359.90798706
 C      6   4   1     2.563911942386   128.57179486    50.36367130
 O     16   6   4     2.295784838387   121.03751791   214.71183932
 N     16   6   4     2.581565311501   116.98718731    38.15960892
 C     18  16   6     2.781793028955   120.32678335   185.35865153
 C     18  16   6     2.787213193033   124.84327516    18.49841429
 H     20  18  16     2.065736782309   109.75981314    31.42367129
 H     20  18  16     2.064954653162   109.68479743   270.70492713
 H     20  18  16     2.066134079667   110.40826889   150.57621547
 H     19  18  16     2.066719567195   109.76903644    39.44784049
 H     19  18  16     2.066054648708   109.29297448   279.60910315
 H     19  18  16     2.066251484149   110.29712202   159.12193525
 H      3   2   1     2.055763340498   119.22169427   180.19382417
 H      1   2   3     2.054893543177   119.23641311   179.27688364
 H      2   1   3     2.054394971578   120.16504274   180.35602428
 H      8   7   3     2.055625021318   120.47969073     0.13370815
 H      9   8   7     2.055399359155   119.53182462   180.01220091
 H     13  12  10     2.056488974130   116.00109159   179.79460059
 H     14  13  12     2.054276317910   120.76754017   179.95605832
 H     15  14  13     2.054970983880   119.88512386   180.12907656

---------------------
BASIS SET INFORMATION
---------------------
There are 4 groups of distinct atoms

 Group   1 Type C   : 11s6p2d contracted to 5s3p2d pattern {62111/411/11}
 Group   2 Type O   : 11s6p2d contracted to 5s3p2d pattern {62111/411/11}
 Group   3 Type N   : 11s6p2d contracted to 5s3p2d pattern {62111/411/11}
 Group   4 Type H   : 5s1p contracted to 3s1p pattern {311/1}

Atom   0C    basis set group =>   1
Atom   1C    basis set group =>   1
Atom   2C    basis set group =>   1
Atom   3C    basis set group =>   1
Atom   4C    basis set group =>   1
Atom   5O    basis set group =>   2
Atom   6C    basis set group =>   1
Atom   7C    basis set group =>   1
Atom   8C    basis set group =>   1
Atom   9C    basis set group =>   1
Atom  10C    basis set group =>   1
Atom  11N    basis set group =>   3
Atom  12C    basis set group =>   1
Atom  13C    basis set group =>   1
Atom  14C    basis set group =>   1
Atom  15C    basis set group =>   1
Atom  16O    basis set group =>   2
Atom  17N    basis set group =>   3
Atom  18C    basis set group =>   1
Atom  19C    basis set group =>   1
Atom  20H    basis set group =>   4
Atom  21H    basis set group =>   4
Atom  22H    basis set group =>   4
Atom  23H    basis set group =>   4
Atom  24H    basis set group =>   4
Atom  25H    basis set group =>   4
Atom  26H    basis set group =>   4
Atom  27H    basis set group =>   4
Atom  28H    basis set group =>   4
Atom  29H    basis set group =>   4
Atom  30H    basis set group =>   4
Atom  31H    basis set group =>   4
Atom  32H    basis set group =>   4
Atom  33H    basis set group =>   4
---------------------------------
AUXILIARY/J BASIS SET INFORMATION
---------------------------------
There are 4 groups of distinct atoms

 Group   1 Type C   : 12s5p4d2f1g contracted to 6s4p3d1f1g pattern {711111/2111/211/2/1}
 Group   2 Type O   : 12s5p4d2f1g contracted to 6s4p3d1f1g pattern {711111/2111/211/2/1}
 Group   3 Type N   : 12s5p4d2f1g contracted to 6s4p3d1f1g pattern {711111/2111/211/2/1}
 Group   4 Type H   : 5s2p1d contracted to 3s1p1d pattern {311/2/1}

Atom   0C    basis set group =>   1
Atom   1C    basis set group =>   1
Atom   2C    basis set group =>   1
Atom   3C    basis set group =>   1
Atom   4C    basis set group =>   1
Atom   5O    basis set group =>   2
Atom   6C    basis set group =>   1
Atom   7C    basis set group =>   1
Atom   8C    basis set group =>   1
Atom   9C    basis set group =>   1
Atom  10C    basis set group =>   1
Atom  11N    basis set group =>   3
Atom  12C    basis set group =>   1
Atom  13C    basis set group =>   1
Atom  14C    basis set group =>   1
Atom  15C    basis set group =>   1
Atom  16O    basis set group =>   2
Atom  17N    basis set group =>   3
Atom  18C    basis set group =>   1
Atom  19C    basis set group =>   1
Atom  20H    basis set group =>   4
Atom  21H    basis set group =>   4
Atom  22H    basis set group =>   4
Atom  23H    basis set group =>   4
Atom  24H    basis set group =>   4
Atom  25H    basis set group =>   4
Atom  26H    basis set group =>   4
Atom  27H    basis set group =>   4
Atom  28H    basis set group =>   4
Atom  29H    basis set group =>   4
Atom  30H    basis set group =>   4
Atom  31H    basis set group =>   4
Atom  32H    basis set group =>   4
Atom  33H    basis set group =>   4
---------------------------------
AUXILIARY/C BASIS SET INFORMATION
---------------------------------
There are 4 groups of distinct atoms

 Group   1 Type C   : 8s6p5d3f1g contracted to 8s6p4d3f1g pattern {11111111/111111/2111/111/1}
 Group   2 Type O   : 8s6p5d3f1g contracted to 8s6p4d3f1g pattern {11111111/111111/2111/111/1}
 Group   3 Type N   : 8s6p5d3f1g contracted to 8s6p4d3f1g pattern {11111111/111111/2111/111/1}
 Group   4 Type H   : 4s3p2d contracted to 4s2p1d pattern {1111/21/2}

Atom   0C    basis set group =>   1
Atom   1C    basis set group =>   1
Atom   2C    basis set group =>   1
Atom   3C    basis set group =>   1
Atom   4C    basis set group =>   1
Atom   5O    basis set group =>   2
Atom   6C    basis set group =>   1
Atom   7C    basis set group =>   1
Atom   8C    basis set group =>   1
Atom   9C    basis set group =>   1
Atom  10C    basis set group =>   1
Atom  11N    basis set group =>   3
Atom  12C    basis set group =>   1
Atom  13C    basis set group =>   1
Atom  14C    basis set group =>   1
Atom  15C    basis set group =>   1
Atom  16O    basis set group =>   2
Atom  17N    basis set group =>   3
Atom  18C    basis set group =>   1
Atom  19C    basis set group =>   1
Atom  20H    basis set group =>   4
Atom  21H    basis set group =>   4
Atom  22H    basis set group =>   4
Atom  23H    basis set group =>   4
Atom  24H    basis set group =>   4
Atom  25H    basis set group =>   4
Atom  26H    basis set group =>   4
Atom  27H    basis set group =>   4
Atom  28H    basis set group =>   4
Atom  29H    basis set group =>   4
Atom  30H    basis set group =>   4
Atom  31H    basis set group =>   4
Atom  32H    basis set group =>   4
Atom  33H    basis set group =>   4
------------------------------------------------------------------------------
                           ORCA GTO INTEGRAL CALCULATION
                           -- RI-GTO INTEGRALS CHOSEN --
------------------------------------------------------------------------------
------------------------------------------------------------------------------
                   ___                                                        
                  /   \      - P O W E R E D   B Y -                         
                 /     \                                                     
                 |  |  |   _    _      __       _____    __    __             
                 |  |  |  | |  | |    /  \     |  _  \  |  |  /  |          
                  \  \/   | |  | |   /    \    | | | |  |  | /  /          
                 / \  \   | |__| |  /  /\  \   | |_| |  |  |/  /          
                |  |  |   |  __  | /  /__\  \  |    /   |      \           
                |  |  |   | |  | | |   __   |  |    \   |  |\   \          
                \     /   | |  | | |  |  |  |  | |\  \  |  | \   \       
                 \___/    |_|  |_| |__|  |__|  |_| \__\ |__|  \__/        
                                                                              
                      - O R C A' S   B I G   F R I E N D -                    
                                      &                                       
                       - I N T E G R A L  F E E D E R -                       
                                                                              
 v1 FN, 2020, v2 2021                                                         
------------------------------------------------------------------------------


Reading SHARK input file hbq_s1.SHARKINP.tmp ... ok
----------------------
SHARK INTEGRAL PACKAGE
----------------------

Number of atoms                             ...     34
Number of basis functions                   ...    564
Number of shells                            ...    256
Maximum angular momentum                    ...      2
Integral batch strategy                     ... SHARK/LIBINT Hybrid
RI-J (if used) integral strategy            ... SPLIT-RIJ (Revised 2003 algorithm where possible)
Printlevel                                  ...      1
Contraction scheme used                     ... SEGMENTED contraction
Coulomb Range Separation                    ... NOT USED
Exchange Range Separation                   ... NOT USED
Finite Nucleus Model                        ... NOT USED
Auxiliary Coulomb fitting basis             ... AVAILABLE
   # of basis functions in Aux-J            ...   1134
   # of shells in Aux-J                     ...    370
   Maximum angular momentum in Aux-J        ...      4
Auxiliary J/K fitting basis                 ... NOT available
Auxiliary Correlation fitting basis         ... AVAILABLE
   # of basis functions in Aux-C            ...   1730
   # of shells in Aux-C                     ...    538
   Maximum angular momentum in Aux-C        ...      4
Auxiliary 'external' fitting basis          ... NOT available
Integral threshold                          ...     2.500000e-11
Primitive cut-off                           ...     2.500000e-12
Primitive pair pre-selection threshold      ...     2.500000e-12

Calculating pre-screening integrals         ... done (  0.1 sec) Dimension = 256
Organizing shell pair data                  ... done (  0.4 sec)
Shell pair information
Total number of shell pairs                 ...     32896
Shell pairs after pre-screening             ...     25250
Total number of primitive shell pairs       ...    108362
Primitive shell pairs kept                  ...     55159
          la=0 lb=0:   7343 shell pairs
          la=1 lb=0:   8283 shell pairs
          la=1 lb=1:   2329 shell pairs
          la=2 lb=0:   4240 shell pairs
          la=2 lb=1:   2405 shell pairs
          la=2 lb=2:    650 shell pairs

Calculating one electron integrals          ... done (  0.2 sec)
Calculating RI/J V-Matrix + Cholesky decomp.... done (  0.3 sec)
Calculating RI/C V-Matrix + Cholesky decomp.... done (  0.6 sec)
Calculating Nuclear repulsion               ... done (  0.0 sec) ENN=   1510.034519243679 Eh

SHARK setup successfully completed in   2.3 seconds

Maximum memory used throughout the entire GTOINT-calculation: 193.8 MB
-------------------------------------------------------------------------------
                                 ORCA SCF
-------------------------------------------------------------------------------

------------
SCF SETTINGS
------------
Hamiltonian:
 Density Functional     Method          .... DFT(GTOs)
 Exchange Functional    Exchange        .... B88
   X-Alpha parameter    XAlpha          ....  0.666667
   Becke's b parameter  XBeta           ....  0.004200
 Correlation Functional Correlation     .... LYP
 LDA part of GGA corr.  LDAOpt          .... VWN-3
 Gradients option       PostSCFGGA      .... off
 Hybrid DFT is turned on
   Fraction HF Exchange ScalHFX         ....  0.200000
   Scaling of DF-GGA-X  ScalDFX         ....  0.720000
   Scaling of DF-GGA-C  ScalDFC         ....  0.810000
   Scaling of DF-LDA-C  ScalLDAC        ....  1.000000
   Perturbative correction              ....  0.000000
   Density functional embedding theory  .... OFF
   NL short-range parameter             ....  4.800000
 RI-approximation to the Coulomb term is turned on
   Number of AuxJ basis functions       .... 1134
   RIJ-COSX (HFX calculated with COS-X)).... on


General Settings:
 Integral files         IntName         .... hbq_s1
 Hartree-Fock type      HFTyp           .... RHF
 Total Charge           Charge          ....    0
 Multiplicity           Mult            ....    1
 Number of Electrons    NEL             ....  140
 Basis Dimension        Dim             ....  564
 Nuclear Repulsion      ENuc            ....   1510.0345192437 Eh

Convergence Acceleration:
 DIIS                   CNVDIIS         .... on
   Start iteration      DIISMaxIt       ....    12
   Startup error        DIISStart       ....  0.200000
   # of expansion vecs  DIISMaxEq       ....     5
   Bias factor          DIISBfac        ....   1.050
   Max. coefficient     DIISMaxC        ....  10.000
 Trust-Rad. Augm. Hess. CNVTRAH         .... auto
   Auto Start mean grad. ratio tolernc. ....  1.125000
   Auto Start start iteration           ....    20
   Auto Start num. interpolation iter.  ....    10
   Max. Number of Micro iterations      ....    16
   Max. Number of Macro iterations      .... Maxiter - #DIIS iter
   Number of Davidson start vectors     ....     2
   Converg. threshold I  (grad. norm)   ....   1.000e-05
   Converg. threshold II (energy diff.) ....   1.000e-08
   Grad. Scal. Fac. for Micro threshold ....   0.100
   Minimum threshold for Micro iter.    ....   0.010
   NR start threshold (gradient norm)   ....   0.001
   Initial trust radius                 ....   0.400
   Minimum AH scaling param. (alpha)    ....   1.000
   Maximum AH scaling param. (alpha)    .... 1000.000
   Orbital update algorithm             .... Taylor
   White noise on init. David. guess    .... on
   Maximum white noise                  ....   0.010
   Quad. conv. algorithm                .... NR
 SOSCF                  CNVSOSCF        .... on
   Start iteration      SOSCFMaxIt      ....   150
   Startup grad/error   SOSCFStart      ....  0.003300
 Level Shifting         CNVShift        .... on
   Level shift para.    LevelShift      ....    0.2500
   Turn off err/grad.   ShiftErr        ....    0.0010
 Zerner damping         CNVZerner       .... off
 Static damping         CNVDamp         .... on
   Fraction old density DampFac         ....    0.7000
   Max. Damping (<1)    DampMax         ....    0.9800
   Min. Damping (>=0)   DampMin         ....    0.0000
   Turn off err/grad.   DampErr         ....    0.1000
 Fernandez-Rico         CNVRico         .... off

SCF Procedure:
 Maximum # iterations   MaxIter         ....   125
 SCF integral mode      SCFMode         .... Direct
   Integral package                     .... SHARK and LIBINT hybrid scheme
 Reset frequency        DirectResetFreq ....    20
 Integral Threshold     Thresh          ....  2.500e-11 Eh
 Primitive CutOff       TCut            ....  2.500e-12 Eh

Convergence Tolerance:
 Convergence Check Mode ConvCheckMode   .... Total+1el-Energy
 Convergence forced     ConvForced      .... 1
 Energy Change          TolE            ....  1.000e-08 Eh
 1-El. energy change                    ....  1.000e-05 Eh
 Orbital Gradient       TolG            ....  1.000e-05
 Orbital Rotation angle TolX            ....  1.000e-05
 DIIS Error             TolErr          ....  5.000e-07


Diagonalization of the overlap matrix:
Smallest eigenvalue                        ... 3.237e-06
Time for diagonalization                   ...    0.067 sec
Threshold for overlap eigenvalues          ... 1.000e-08
Number of eigenvalues below threshold      ... 0
Time for construction of square roots      ...    0.060 sec
Total time needed                          ...    0.128 sec

Time for model grid setup =    1.166 sec

------------------------------
INITIAL GUESS: MODEL POTENTIAL
------------------------------
Loading Hartree-Fock densities                     ... done
Calculating cut-offs                               ... done
Initializing the effective Hamiltonian             ... done
Setting up the integral package (SHARK)            ... done
Starting the Coulomb interaction                   ... done (   2.3 sec)
Reading the grid                                   ... done
Mapping shells                                     ... done
Starting the XC term evaluation                    ... done (   1.5 sec)
  promolecular density results
     # of electrons  =    139.993177075
     EX              =   -116.045800993
     EC              =     -4.787066325
     EX+EC           =   -120.832867318
Transforming the Hamiltonian                       ... done (   0.0 sec)
Diagonalizing the Hamiltonian                      ... done (   0.1 sec)
Back transforming the eigenvectors                 ... done (   0.0 sec)
Now organizing SCF variables                       ... done
                      ------------------
                      INITIAL GUESS DONE (   5.2 sec)
                      ------------------
-------------------
DFT GRID GENERATION
-------------------

General Integration Accuracy     IntAcc      ... 4.388
Radial Grid Type                 RadialGrid  ... OptM3 with GC (2021)
Angular Grid (max. ang.)         AngularGrid ... 4 (Lebedev-302)
Angular grid pruning method      GridPruning ... 4 (adaptive)
Weight generation scheme         WeightScheme... Becke
Basis function cutoff            BFCut       ... 1.0000e-11
Integration weight cutoff        WCut        ... 1.0000e-14
Angular grids for H and He will be reduced by one unit
Partially contracted basis set               ... off
Rotationally invariant grid construction     ... off

Total number of grid points                  ...   164143
Total number of batches                      ...     2580
Average number of points per batch           ...       63
Average number of grid points per atom       ...     4828
Time for grid setup =    3.764 sec

--------------------
COSX GRID GENERATION
--------------------

GRIDX 1
-------
General Integration Accuracy     IntAcc      ... 3.816
Radial Grid Type                 RadialGrid  ... OptM3 with GC (2021)
Angular Grid (max. ang.)         AngularGrid ... 1 (Lebedev-50)
Angular grid pruning method      GridPruning ... 4 (adaptive)
Weight generation scheme         WeightScheme... Becke
Basis function cutoff            BFCut       ... 1.0000e-11
Integration weight cutoff        WCut        ... 1.0000e-14
Angular grids for H and He will be reduced by one unit
Partially contracted basis set               ... on
Rotationally invariant grid construction     ... off

Total number of grid points                  ...    20877
Total number of batches                      ...      340
Average number of points per batch           ...       61
Average number of grid points per atom       ...      614
UseSFitting                                  ... on

GRIDX 2
-------
General Integration Accuracy     IntAcc      ... 4.020
Radial Grid Type                 RadialGrid  ... OptM3 with GC (2021)
Angular Grid (max. ang.)         AngularGrid ... 2 (Lebedev-110)
Angular grid pruning method      GridPruning ... 4 (adaptive)
Weight generation scheme         WeightScheme... Becke
Basis function cutoff            BFCut       ... 1.0000e-11
Integration weight cutoff        WCut        ... 1.0000e-14
Angular grids for H and He will be reduced by one unit
Partially contracted basis set               ... on
Rotationally invariant grid construction     ... off

Total number of grid points                  ...    45493
Total number of batches                      ...      730
Average number of points per batch           ...       62
Average number of grid points per atom       ...     1338
UseSFitting                                  ... on

GRIDX 3
-------
General Integration Accuracy     IntAcc      ... 4.338
Radial Grid Type                 RadialGrid  ... OptM3 with GC (2021)
Angular Grid (max. ang.)         AngularGrid ... 3 (Lebedev-194)
Angular grid pruning method      GridPruning ... 4 (adaptive)
Weight generation scheme         WeightScheme... Becke
Basis function cutoff            BFCut       ... 1.0000e-11
Integration weight cutoff        WCut        ... 1.0000e-14
Angular grids for H and He will be reduced by one unit
Partially contracted basis set               ... on
Rotationally invariant grid construction     ... off

Total number of grid points                  ...    99677
Total number of batches                      ...     1576
Average number of points per batch           ...       63
Average number of grid points per atom       ...     2932
UseSFitting                                  ... on

Time for X-Grid setup             =    6.540 sec


--------------------
CPCM SOLVATION MODEL
--------------------
CPCM parameters:
  Epsilon                                         ...      80.4000
  Refrac                                          ...       1.3300
  Rsolv                                           ...       1.3000
  Surface type                                    ... GAUSSIAN VDW
  Epsilon function type                           ...         CPCM
Radii:
 Radius for C  used is    3.8550 Bohr (=   2.0400 Ang.)
 Radius for O  used is    3.4469 Bohr (=   1.8240 Ang.)
 Radius for N  used is    3.5149 Bohr (=   1.8600 Ang.)
 Radius for H  used is    2.4944 Bohr (=   1.3200 Ang.)
Calculating surface                               ...        done! (  0.0s)
GEPOL surface points                              ...         1802
GEPOL Volume                                      ...    2110.6469
GEPOL Surface-area                                ...    1058.3689
Calculating surface distance matrix               ...        done! (  0.0s)
Performing Cholesky decomposition & store         ...        done! (  0.3s)
Overall time for CPCM initialization              ...                 0.4s
--------------
SCF ITERATIONS
--------------
ITER       Energy         Delta-E        Max-DP      RMS-DP      [F,P]     Damp
               ***  Starting incremental Fock matrix formation  ***
  0   -877.9202701805   0.000000000000 0.10102685  0.00150989  0.3013287 0.7000
  1   -878.1469558256  -0.226685645073 0.08355082  0.00131186  0.1136315 0.7000
                               ***Turning on DIIS***
  2   -878.2386595826  -0.091703757011 0.18007707  0.00260386  0.0376274 0.0000
  3   -878.3834426834  -0.144783100797 0.06736848  0.00091483  0.0556311 0.0000
  4   -878.4134632240  -0.030020540627 0.04285865  0.00041909  0.0162801 0.0000
  5   -878.4153737620  -0.001910537985 0.01625395  0.00014100  0.0100751 0.0000
                      *** Initiating the SOSCF procedure ***
                           *** Shutting down DIIS ***
                      *** Re-Reading the Fockian *** 
                      *** Removing any level shift *** 
ITER      Energy       Delta-E        Grad      Rot      Max-DP    RMS-DP
  6   -878.41553666  -0.0001628981  0.000230  0.000230  0.006461  0.000055
               *** Restarting incremental Fock matrix formation ***
  7   -878.41556034  -0.0000236757  0.000132  0.000494  0.005092  0.000047
  8   -878.41555955   0.0000007852  0.000255  0.000344  0.001881  0.000015
  9   -878.41556267  -0.0000031178  0.000028  0.000076  0.001165  0.000010
 10   -878.41556261   0.0000000590  0.000045  0.000049  0.000349  0.000002
 11   -878.41556276  -0.0000001501  0.000008  0.000044  0.000367  0.000003
 12   -878.41556275   0.0000000107  0.000012  0.000028  0.000227  0.000002
                  ***Gradient check signals convergence***
              ***Rediagonalizing the Fockian in SOSCF/NRSCF***

               *****************************************************
               *                     SUCCESS                       *
               *           SCF CONVERGED AFTER  13 CYCLES          *
               *****************************************************

Old exchange energy                            =    -23.549337721 Eh
New exchange energy                            =    -23.549351997 Eh
Exchange energy change after final integration =     -0.000014276 Eh
Total energy after final integration           =   -878.415577030 Eh
Final COS-X integration done in                =   113.985 sec

----------------
TOTAL SCF ENERGY
----------------

Total Energy       :         -878.41557703 Eh          -23902.90305 eV

Components:
Nuclear Repulsion  :         1510.03451924 Eh           41090.12825 eV
Electronic Energy  :        -2388.45009627 Eh          -64993.03130 eV
One Electron Energy:        -4192.22864979 Eh         -114076.34109 eV
Two Electron Energy:         1803.77855352 Eh           49083.30979 eV
Max COSX asymmetry :            0.00000155 Eh               0.00004 eV
CPCM Dielectric    :           -0.02802045 Eh              -0.76248 eV

Virial components:
Potential Energy   :        -1752.63994577 Eh          -47691.75753 eV
Kinetic Energy     :          874.22436874 Eh           23788.85448 eV
Virial Ratio       :            2.00479420


DFT components:
N(Alpha)           :       70.000009651709 electrons
N(Beta)            :       70.000009651709 electrons
N(Total)           :      140.000019303418 electrons
E(X)               :      -93.624657487994 Eh       
E(C)               :       -6.158009999099 Eh       
E(XC)              :      -99.782667487093 Eh       
DFET-embed. en.    :        0.000000000000 Eh       
CPCM Solvation Model Properties:
Surface-charge          :           -0.03229658
Charge-correction       :           -0.00046850 Eh              -0.01275 eV
Free-energy (cav+disp)  :  This term is not implemented in the current solvation scheme

---------------
SCF CONVERGENCE
---------------

  Last Energy change         ...   -5.2042e-09  Tolerance :   1.0000e-08
  Last MAX-Density change    ...    1.6653e-15  Tolerance :   1.0000e-07
  Last RMS-Density change    ...    1.8046e-17  Tolerance :   5.0000e-09
  Last Orbital Gradient      ...    1.6688e-06  Tolerance :   1.0000e-05
  Last Orbital Rotation      ...    5.4991e-06  Tolerance :   1.0000e-05

             **** THE GBW FILE WAS UPDATED (hbq_s1.gbw) ****
             **** DENSITY hbq_s1.scfp WAS UPDATED ****
             **** ENERGY FILE WAS UPDATED (hbq_s1.en.tmp) ****
             **** THE GBW FILE WAS UPDATED (hbq_s1.gbw) ****
             **** DENSITY hbq_s1.scfp WAS UPDATED ****
----------------
ORBITAL ENERGIES
----------------

  NO   OCC          E(Eh)            E(eV) 
   0   2.0000     -19.182290      -521.9766 
   1   2.0000     -19.107107      -519.9308 
   2   2.0000     -14.352742      -390.5580 
   3   2.0000     -14.319074      -389.6418 
   4   2.0000     -10.330268      -281.1009 
   5   2.0000     -10.258738      -279.1544 
   6   2.0000     -10.224000      -278.2092 
   7   2.0000     -10.214622      -277.9540 
   8   2.0000     -10.201345      -277.5927 
   9   2.0000     -10.200953      -277.5820 
  10   2.0000     -10.199809      -277.5509 
  11   2.0000     -10.195070      -277.4219 
  12   2.0000     -10.194438      -277.4048 
  13   2.0000     -10.191390      -277.3218 
  14   2.0000     -10.185273      -277.1554 
  15   2.0000     -10.184579      -277.1365 
  16   2.0000     -10.184511      -277.1346 
  17   2.0000     -10.183354      -277.1032 
  18   2.0000     -10.182591      -277.0824 
  19   2.0000     -10.180620      -277.0288 
  20   2.0000      -1.122188       -30.5363 
  21   2.0000      -1.036555       -28.2061 
  22   2.0000      -0.951028       -25.8788 
  23   2.0000      -0.937075       -25.4991 
  24   2.0000      -0.888901       -24.1882 
  25   2.0000      -0.843210       -22.9449 
  26   2.0000      -0.809874       -22.0378 
  27   2.0000      -0.790404       -21.5080 
  28   2.0000      -0.757277       -20.6066 
  29   2.0000      -0.740007       -20.1366 
  30   2.0000      -0.719665       -19.5831 
  31   2.0000      -0.706240       -19.2178 
  32   2.0000      -0.669609       -18.2210 
  33   2.0000      -0.652526       -17.7561 
  34   2.0000      -0.643414       -17.5082 
  35   2.0000      -0.625175       -17.0119 
  36   2.0000      -0.581193       -15.8151 
  37   2.0000      -0.547155       -14.8888 
  38   2.0000      -0.542907       -14.7733 
  39   2.0000      -0.531815       -14.4714 
  40   2.0000      -0.522297       -14.2124 
  41   2.0000      -0.495828       -13.4922 
  42   2.0000      -0.490147       -13.3376 
  43   2.0000      -0.483080       -13.1453 
  44   2.0000      -0.482164       -13.1203 
  45   2.0000      -0.467599       -12.7240 
  46   2.0000      -0.447048       -12.1648 
  47   2.0000      -0.443427       -12.0663 
  48   2.0000      -0.439903       -11.9704 
  49   2.0000      -0.433190       -11.7877 
  50   2.0000      -0.422730       -11.5031 
  51   2.0000      -0.418745       -11.3946 
  52   2.0000      -0.412614       -11.2278 
  53   2.0000      -0.409974       -11.1560 
  54   2.0000      -0.407487       -11.0883 
  55   2.0000      -0.403089       -10.9686 
  56   2.0000      -0.388735       -10.5780 
  57   2.0000      -0.377291       -10.2666 
  58   2.0000      -0.375612       -10.2209 
  59   2.0000      -0.368245       -10.0205 
  60   2.0000      -0.357791        -9.7360 
  61   2.0000      -0.337461        -9.1828 
  62   2.0000      -0.329473        -8.9654 
  63   2.0000      -0.310487        -8.4488 
  64   2.0000      -0.299260        -8.1433 
  65   2.0000      -0.283066        -7.7026 
  66   2.0000      -0.260555        -7.0901 
  67   2.0000      -0.250573        -6.8184 
  68   2.0000      -0.249833        -6.7983 
  69   2.0000      -0.224416        -6.1067 
  70   0.0000      -0.068224        -1.8565 
  71   0.0000      -0.058232        -1.5846 
  72   0.0000      -0.017078        -0.4647 
  73   0.0000       0.006191         0.1685 
  74   0.0000       0.025222         0.6863 
  75   0.0000       0.039929         1.0865 
  76   0.0000       0.052953         1.4409 
  77   0.0000       0.058807         1.6002 
  78   0.0000       0.062875         1.7109 
  79   0.0000       0.069612         1.8942 
  80   0.0000       0.075185         2.0459 
  81   0.0000       0.080991         2.2039 
  82   0.0000       0.090688         2.4678 
  83   0.0000       0.092566         2.5189 
  84   0.0000       0.099997         2.7211 
  85   0.0000       0.102266         2.7828 
  86   0.0000       0.104853         2.8532 
  87   0.0000       0.110779         3.0145 
  88   0.0000       0.115039         3.1304 
  89   0.0000       0.119324         3.2470 
  90   0.0000       0.125308         3.4098 
  91   0.0000       0.130691         3.5563 
  92   0.0000       0.138270         3.7625 
  93   0.0000       0.147745         4.0204 
  94   0.0000       0.151403         4.1199 
  95   0.0000       0.154749         4.2109 
  96   0.0000       0.168392         4.5822 
  97   0.0000       0.172022         4.6810 
  98   0.0000       0.175369         4.7720 
  99   0.0000       0.185055         5.0356 
 100   0.0000       0.192123         5.2279 
 101   0.0000       0.193492         5.2652 
 102   0.0000       0.197680         5.3791 
 103   0.0000       0.211034         5.7425 
 104   0.0000       0.214998         5.8504 
 105   0.0000       0.224425         6.1069 
 106   0.0000       0.227216         6.1829 
 107   0.0000       0.234809         6.3895 
 108   0.0000       0.235805         6.4166 
 109   0.0000       0.236965         6.4481 
 110   0.0000       0.242949         6.6110 
 111   0.0000       0.245557         6.6819 
 112   0.0000       0.251101         6.8328 
 113   0.0000       0.254008         6.9119 
 114   0.0000       0.261528         7.1165 
 115   0.0000       0.265729         7.2309 
 116   0.0000       0.270778         7.3682 
 117   0.0000       0.279397         7.6028 
 118   0.0000       0.284781         7.7493 
 119   0.0000       0.291666         7.9366 
 120   0.0000       0.292502         7.9594 
 121   0.0000       0.296782         8.0759 
 122   0.0000       0.300105         8.1663 
 123   0.0000       0.307446         8.3660 
 124   0.0000       0.309806         8.4303 
 125   0.0000       0.313055         8.5187 
 126   0.0000       0.318034         8.6542 
 127   0.0000       0.322597         8.7783 
 128   0.0000       0.331178         9.0118 
 129   0.0000       0.340857         9.2752 
 130   0.0000       0.342162         9.3107 
 131   0.0000       0.347630         9.4595 
 132   0.0000       0.348276         9.4771 
 133   0.0000       0.355628         9.6771 
 134   0.0000       0.359697         9.7879 
 135   0.0000       0.361732         9.8432 
 136   0.0000       0.375288        10.2121 
 137   0.0000       0.386194        10.5089 
 138   0.0000       0.390650        10.6301 
 139   0.0000       0.391723        10.6593 
 140   0.0000       0.396975        10.8022 
 141   0.0000       0.399086        10.8597 
 142   0.0000       0.403428        10.9778 
 143   0.0000       0.405713        11.0400 
 144   0.0000       0.410786        11.1781 
 145   0.0000       0.416346        11.3294 
 146   0.0000       0.423890        11.5346 
 147   0.0000       0.426616        11.6088 
 148   0.0000       0.430401        11.7118 
 149   0.0000       0.438215        11.9244 
 150   0.0000       0.441222        12.0063 
 151   0.0000       0.445125        12.1125 
 152   0.0000       0.458361        12.4726 
 153   0.0000       0.462945        12.5974 
 154   0.0000       0.468931        12.7603 
 155   0.0000       0.472213        12.8496 
 156   0.0000       0.479015        13.0346 
 157   0.0000       0.482890        13.1401 
 158   0.0000       0.487135        13.2556 
 159   0.0000       0.488641        13.2966 
 160   0.0000       0.494970        13.4688 
 161   0.0000       0.499123        13.5818 
 162   0.0000       0.506592        13.7851 
 163   0.0000       0.508088        13.8258 
 164   0.0000       0.515086        14.0162 
 165   0.0000       0.521824        14.1996 
 166   0.0000       0.525971        14.3124 
 167   0.0000       0.528320        14.3763 
 168   0.0000       0.532593        14.4926 
 169   0.0000       0.537550        14.6275 
 170   0.0000       0.547980        14.9113 
 171   0.0000       0.554135        15.0788 
 172   0.0000       0.563578        15.3357 
 173   0.0000       0.565408        15.3855 
 174   0.0000       0.576710        15.6931 
 175   0.0000       0.582564        15.8524 
 176   0.0000       0.588427        16.0119 
 177   0.0000       0.601876        16.3779 
 178   0.0000       0.610498        16.6125 
 179   0.0000       0.616426        16.7738 
 180   0.0000       0.629834        17.1387 
 181   0.0000       0.636184        17.3114 
 182   0.0000       0.639220        17.3941 
 183   0.0000       0.641705        17.4617 
 184   0.0000       0.651571        17.7302 
 185   0.0000       0.656506        17.8644 
 186   0.0000       0.667073        18.1520 
 187   0.0000       0.669823        18.2268 
 188   0.0000       0.675206        18.3733 
 189   0.0000       0.679491        18.4899 
 190   0.0000       0.685354        18.6494 
 191   0.0000       0.691231        18.8094 
 192   0.0000       0.696205        18.9447 
 193   0.0000       0.705162        19.1884 
 194   0.0000       0.706624        19.2282 
 195   0.0000       0.715702        19.4752 
 196   0.0000       0.723736        19.6939 
 197   0.0000       0.736271        20.0349 
 198   0.0000       0.745829        20.2950 
 199   0.0000       0.749393        20.3920 
 200   0.0000       0.755109        20.5476 
 201   0.0000       0.759509        20.6673 
 202   0.0000       0.763001        20.7623 
 203   0.0000       0.770708        20.9720 
 204   0.0000       0.782458        21.2918 
 205   0.0000       0.786500        21.4017 
 206   0.0000       0.792317        21.5600 
 207   0.0000       0.793412        21.5898 
 208   0.0000       0.806766        21.9532 
 209   0.0000       0.813335        22.1320 
 210   0.0000       0.823136        22.3987 
 211   0.0000       0.824212        22.4279 
 212   0.0000       0.828306        22.5393 
 213   0.0000       0.835930        22.7468 
 214   0.0000       0.844664        22.9845 
 215   0.0000       0.848407        23.0863 
 216   0.0000       0.859556        23.3897 
 217   0.0000       0.863369        23.4935 
 218   0.0000       0.868955        23.6455 
 219   0.0000       0.885593        24.0982 
 220   0.0000       0.888150        24.1678 
 221   0.0000       0.898816        24.4580 
 222   0.0000       0.909148        24.7392 
 223   0.0000       0.925254        25.1774 
 224   0.0000       0.926467        25.2105 
 225   0.0000       0.928359        25.2619 
 226   0.0000       0.951602        25.8944 
 227   0.0000       0.963468        26.2173 
 228   0.0000       0.972571        26.4650 
 229   0.0000       0.974604        26.5203 
 230   0.0000       0.979225        26.6461 
 231   0.0000       0.992445        27.0058 
 232   0.0000       1.001007        27.2388 
 233   0.0000       1.014277        27.5999 
 234   0.0000       1.019029        27.7292 
 235   0.0000       1.023054        27.8387 
 236   0.0000       1.031015        28.0554 
 237   0.0000       1.036576        28.2067 
 238   0.0000       1.055539        28.7227 
 239   0.0000       1.065116        28.9833 
 240   0.0000       1.078398        29.3447 
 241   0.0000       1.084722        29.5168 
 242   0.0000       1.085976        29.5509 
 243   0.0000       1.100731        29.9524 
 244   0.0000       1.103137        30.0179 
 245   0.0000       1.119072        30.4515 
 246   0.0000       1.137887        30.9635 
 247   0.0000       1.146958        31.2103 
 248   0.0000       1.163933        31.6722 
 249   0.0000       1.175730        31.9933 
 250   0.0000       1.181167        32.1412 
 251   0.0000       1.187987        32.3268 
 252   0.0000       1.194397        32.5012 
 253   0.0000       1.210219        32.9317 
 254   0.0000       1.222782        33.2736 
 255   0.0000       1.226146        33.3651 
 256   0.0000       1.250273        34.0217 
 257   0.0000       1.256338        34.1867 
 258   0.0000       1.259826        34.2816 
 259   0.0000       1.263135        34.3716 
 260   0.0000       1.268683        34.5226 
 261   0.0000       1.284970        34.9658 
 262   0.0000       1.287020        35.0216 
 263   0.0000       1.294611        35.2282 
 264   0.0000       1.311909        35.6988 
 265   0.0000       1.323567        36.0161 
 266   0.0000       1.328626        36.1537 
 267   0.0000       1.332338        36.2547 
 268   0.0000       1.341036        36.4915 
 269   0.0000       1.350989        36.7623 
 270   0.0000       1.364996        37.1434 
 271   0.0000       1.369494        37.2658 
 272   0.0000       1.377965        37.4963 
 273   0.0000       1.397916        38.0392 
 274   0.0000       1.409850        38.3640 
 275   0.0000       1.419787        38.6344 
 276   0.0000       1.423522        38.7360 
 277   0.0000       1.433973        39.0204 
 278   0.0000       1.441171        39.2163 
 279   0.0000       1.447186        39.3799 
 280   0.0000       1.452955        39.5369 
 281   0.0000       1.466626        39.9089 
 282   0.0000       1.468820        39.9686 
 283   0.0000       1.473780        40.1036 
 284   0.0000       1.493479        40.6396 
 285   0.0000       1.501368        40.8543 
 286   0.0000       1.506529        40.9947 
 287   0.0000       1.516064        41.2542 
 288   0.0000       1.522589        41.4317 
 289   0.0000       1.531024        41.6613 
 290   0.0000       1.536252        41.8035 
 291   0.0000       1.540580        41.9213 
 292   0.0000       1.552339        42.2413 
 293   0.0000       1.552669        42.2503 
 294   0.0000       1.564180        42.5635 
 295   0.0000       1.568486        42.6807 
 296   0.0000       1.572004        42.7764 
 297   0.0000       1.576257        42.8921 
 298   0.0000       1.581396        43.0320 
 299   0.0000       1.601348        43.5749 
 300   0.0000       1.611079        43.8397 
 301   0.0000       1.621160        44.1140 
 302   0.0000       1.627779        44.2941 
 303   0.0000       1.630342        44.3638 
 304   0.0000       1.634968        44.4898 
 305   0.0000       1.643388        44.7189 
 306   0.0000       1.645027        44.7635 
 307   0.0000       1.650759        44.9194 
 308   0.0000       1.662338        45.2345 
 309   0.0000       1.673432        45.5364 
 310   0.0000       1.677634        45.6508 
 311   0.0000       1.686464        45.8910 
 312   0.0000       1.693283        46.0766 
 313   0.0000       1.699687        46.2508 
 314   0.0000       1.707541        46.4646 
 315   0.0000       1.714088        46.6427 
 316   0.0000       1.728364        47.0312 
 317   0.0000       1.734113        47.1876 
 318   0.0000       1.735933        47.2371 
 319   0.0000       1.750256        47.6269 
 320   0.0000       1.762468        47.9592 
 321   0.0000       1.770457        48.1766 
 322   0.0000       1.775339        48.3094 
 323   0.0000       1.787348        48.6362 
 324   0.0000       1.798119        48.9293 
 325   0.0000       1.808599        49.2145 
 326   0.0000       1.821316        49.5605 
 327   0.0000       1.827585        49.7311 
 328   0.0000       1.851258        50.3753 
 329   0.0000       1.855595        50.4933 
 330   0.0000       1.866169        50.7810 
 331   0.0000       1.883859        51.2624 
 332   0.0000       1.900281        51.7093 
 333   0.0000       1.908772        51.9403 
 334   0.0000       1.927970        52.4627 
 335   0.0000       1.940742        52.8103 
 336   0.0000       1.952722        53.1363 
 337   0.0000       1.963698        53.4350 
 338   0.0000       1.970212        53.6122 
 339   0.0000       1.987235        54.0754 
 340   0.0000       2.002390        54.4878 
 341   0.0000       2.014790        54.8252 
 342   0.0000       2.020464        54.9796 
 343   0.0000       2.038740        55.4769 
 344   0.0000       2.048200        55.7344 
 345   0.0000       2.051525        55.8248 
 346   0.0000       2.079284        56.5802 
 347   0.0000       2.081182        56.6318 
 348   0.0000       2.100443        57.1560 
 349   0.0000       2.107003        57.3345 
 350   0.0000       2.124147        57.8010 
 351   0.0000       2.150381        58.5148 
 352   0.0000       2.159811        58.7714 
 353   0.0000       2.169537        59.0361 
 354   0.0000       2.191747        59.6405 
 355   0.0000       2.198175        59.8154 
 356   0.0000       2.213734        60.2388 
 357   0.0000       2.217188        60.3328 
 358   0.0000       2.229937        60.6797 
 359   0.0000       2.233362        60.7729 
 360   0.0000       2.236310        60.8531 
 361   0.0000       2.264537        61.6212 
 362   0.0000       2.278475        62.0005 
 363   0.0000       2.282471        62.1092 
 364   0.0000       2.290139        62.3178 
 365   0.0000       2.306349        62.7589 
 366   0.0000       2.325334        63.2756 
 367   0.0000       2.333839        63.5070 
 368   0.0000       2.339832        63.6701 
 369   0.0000       2.359619        64.2085 
 370   0.0000       2.365842        64.3778 
 371   0.0000       2.370771        64.5119 
 372   0.0000       2.384342        64.8812 
 373   0.0000       2.390667        65.0533 
 374   0.0000       2.400959        65.3334 
 375   0.0000       2.413584        65.6770 
 376   0.0000       2.423053        65.9346 
 377   0.0000       2.435823        66.2821 
 378   0.0000       2.442376        66.4604 
 379   0.0000       2.457608        66.8749 
 380   0.0000       2.471868        67.2630 
 381   0.0000       2.475257        67.3552 
 382   0.0000       2.488391        67.7126 
 383   0.0000       2.493026        67.8387 
 384   0.0000       2.494550        67.8802 
 385   0.0000       2.506691        68.2105 
 386   0.0000       2.525315        68.7173 
 387   0.0000       2.537267        69.0425 
 388   0.0000       2.550700        69.4081 
 389   0.0000       2.582440        70.2718 
 390   0.0000       2.596411        70.6519 
 391   0.0000       2.598078        70.6973 
 392   0.0000       2.623226        71.3816 
 393   0.0000       2.637680        71.7749 
 394   0.0000       2.665558        72.5335 
 395   0.0000       2.669828        72.6497 
 396   0.0000       2.673950        72.7619 
 397   0.0000       2.683959        73.0342 
 398   0.0000       2.697343        73.3984 
 399   0.0000       2.702301        73.5333 
 400   0.0000       2.714406        73.8627 
 401   0.0000       2.721970        74.0686 
 402   0.0000       2.726498        74.1918 
 403   0.0000       2.732591        74.3576 
 404   0.0000       2.748743        74.7971 
 405   0.0000       2.753628        74.9300 
 406   0.0000       2.771018        75.4032 
 407   0.0000       2.780308        75.6560 
 408   0.0000       2.790583        75.9356 
 409   0.0000       2.802367        76.2563 
 410   0.0000       2.811241        76.4977 
 411   0.0000       2.827910        76.9513 
 412   0.0000       2.834905        77.1417 
 413   0.0000       2.838232        77.2322 
 414   0.0000       2.857436        77.7548 
 415   0.0000       2.871976        78.1504 
 416   0.0000       2.878207        78.3200 
 417   0.0000       2.891683        78.6867 
 418   0.0000       2.893535        78.7371 
 419   0.0000       2.902719        78.9870 
 420   0.0000       2.913843        79.2897 
 421   0.0000       2.927054        79.6492 
 422   0.0000       2.938553        79.9621 
 423   0.0000       2.947380        80.2023 
 424   0.0000       2.953366        80.3652 
 425   0.0000       2.959879        80.5424 
 426   0.0000       2.967372        80.7463 
 427   0.0000       2.973966        80.9257 
 428   0.0000       2.986091        81.2557 
 429   0.0000       2.990109        81.3650 
 430   0.0000       2.994649        81.4885 
 431   0.0000       3.012894        81.9850 
 432   0.0000       3.028629        82.4132 
 433   0.0000       3.031908        82.5024 
 434   0.0000       3.036846        82.6368 
 435   0.0000       3.041431        82.7616 
 436   0.0000       3.047072        82.9150 
[...]
     77       0.000227  -0.001028  -0.000061   0.000167   0.000356   0.000172
     78      -0.310006  -0.000081   0.047257   0.010218   0.119927  -0.021132
     79       0.727297   0.000122  -0.116231  -0.025414  -0.275170   0.045267
     80       0.467139   0.000074  -0.074167  -0.016068  -0.176344   0.029310
     81       0.057096  -0.001426  -0.021060   0.004552   0.312562   0.905195
     82      -0.004714   0.000127   0.001529  -0.000430  -0.023366  -0.075724
     83      -0.015122   0.000380   0.005512  -0.001379  -0.082987  -0.244857
     84      -0.216155   0.006495   0.069548   0.017700  -0.568924   0.207278
     85      -0.233563   0.006883   0.075198   0.019228  -0.603919   0.224402
     86      -0.106406   0.003073   0.034251   0.008689  -0.273198   0.101462
     87       0.045531  -0.003527   0.266675   0.065487   0.015401  -0.002802
     88      -0.130933   0.009723  -0.733673  -0.181938  -0.040218   0.007951
     89      -0.074747   0.005538  -0.419577  -0.103929  -0.022938   0.004474
     90       0.083052  -0.003221   0.317803   0.140015   0.018659   0.000317
     91      -0.014285   0.000652  -0.051225  -0.024974  -0.002914  -0.000532
     92      -0.012997   0.000513  -0.048745  -0.022353  -0.002855   0.000024
     93       0.001645   0.000470   0.015578  -0.049579  -0.002268  -0.000374
     94      -0.003632  -0.000755  -0.034842   0.109673   0.005461   0.001411
     95      -0.001460  -0.000290  -0.013010   0.041373   0.002306   0.000311
     96      -0.018447  -0.009391  -0.121257   0.417932  -0.006691  -0.004148
     97      -0.021173  -0.011021  -0.140948   0.487076  -0.007948  -0.004704
     98      -0.007870  -0.004108  -0.052242   0.180750  -0.002796  -0.001824
     99       0.015757  -0.029671  -0.164344   0.660139   0.005853  -0.007133
    100      -0.002263   0.004871   0.027936  -0.109072  -0.000817   0.001221
    101      -0.002502   0.004881   0.027567  -0.108634  -0.000987   0.000939


-----------
IR SPECTRUM
-----------

 Mode   freq       eps      Int      T**2         TX        TY        TZ
       cm**-1   L/(mol*cm) km/mol    a.u.
----------------------------------------------------------------------------
  6:     26.21   0.000205    1.04  0.002438  (-0.022570 -0.006080 -0.043498)
  7:     29.38   0.001090    5.51  0.011575  ( 0.053812  0.079429 -0.048681)
  8:     37.42   0.000588    2.97  0.004900  ( 0.060859  0.027380  0.021123)
  9:     45.22   0.000075    0.38  0.000518  (-0.004408 -0.020148  0.009602)
 10:     66.35   0.000250    1.27  0.001178  ( 0.021891  0.024013  0.011041)
 11:     90.99   0.001592    8.04  0.005459  (-0.001977 -0.032613  0.066269)
 12:    104.50   0.000611    3.09  0.001826  ( 0.020635 -0.025989  0.026915)
 13:    125.50   0.000201    1.01  0.000499  (-0.017763 -0.012042  0.006222)
 14:    182.02   0.000763    3.85  0.001307  (-0.021422  0.009220  0.027632)
 15:    198.23   0.000864    4.37  0.001360  (-0.007515  0.016013 -0.032356)
 16:    208.53   0.002930   14.81  0.004385  (-0.046355  0.047191  0.003079)
 17:    234.95   0.000309    1.56  0.000410  ( 0.016653  0.011343 -0.002056)
 18:    242.23   0.001587    8.02  0.002044  (-0.002890 -0.045070 -0.002098)
 19:    262.03   0.000301    1.52  0.000359  (-0.004160 -0.018241 -0.003004)
 20:    344.68   0.002477   12.52  0.002243  (-0.034696  0.025596  0.019585)
 21:    357.92   0.000226    1.14  0.000197  ( 0.006588 -0.011130 -0.005473)
 22:    383.59   0.001776    8.98  0.001445  ( 0.028183 -0.017447 -0.018610)
 23:    402.30   0.001077    5.44  0.000836  ( 0.013220 -0.020895 -0.014980)
 24:    449.97   0.001609    8.13  0.001116  ( 0.030774 -0.008367  0.009933)
 25:    460.75   0.000102    0.51  0.000069  ( 0.000846 -0.005177 -0.006430)
 26:    472.90   0.002081   10.52  0.001373  ( 0.029430 -0.018341  0.013066)
 27:    493.39   0.002653   13.41  0.001678  (-0.028289  0.022367  0.019433)
 28:    504.95   0.000704    3.56  0.000435  ( 0.013661  0.015021 -0.004800)
 29:    525.27   0.001669    8.43  0.000991  (-0.028566  0.006412  0.011589)
 30:    538.08   0.001368    6.91  0.000793  (-0.026077 -0.008230 -0.006745)
 31:    587.94   0.001526    7.71  0.000810  ( 0.028184  0.001987 -0.003446)
 32:    603.52   0.000922    4.66  0.000477  (-0.008682 -0.018996  0.006375)
 33:    624.55   0.004140   20.92  0.002069  (-0.002294  0.007501  0.044801)
 34:    675.39   0.015862   80.16  0.007329  (-0.008524 -0.049140  0.069580)
 35:    685.75   0.009746   49.25  0.004435  ( 0.034971 -0.050745  0.025245)
 36:    691.19   0.003298   16.67  0.001489  ( 0.015939 -0.012955 -0.032665)
 37:    709.46   0.002184   11.04  0.000961  (-0.007832  0.014773  0.026099)
 38:    739.82   0.008796   44.45  0.003710  ( 0.048397  0.025901 -0.026403)
 39:    750.63   0.004339   21.93  0.001804  ( 0.021271 -0.016213 -0.032993)
 40:    796.30   0.015487   78.27  0.006069  (-0.034009  0.003738  0.069991)
 41:    808.12   0.007760   39.21  0.002997  ( 0.013603 -0.022342  0.048087)
 42:    818.94   0.003038   15.35  0.001158  (-0.023015 -0.001776  0.024994)
 43:    835.64   0.011670   58.98  0.004358  (-0.039461  0.048671 -0.020787)
 44:    837.16   0.000720    3.64  0.000268  (-0.001198  0.002847  0.016087)
 45:    843.34   0.002909   14.70  0.001076  (-0.019336 -0.025299 -0.007902)
 46:    891.73   0.000913    4.61  0.000319  (-0.008807 -0.009523  0.012295)
 47:    914.10   0.000263    1.33  0.000090  ( 0.000807  0.000837  0.009409)
 48:    922.47   0.000001    0.00  0.000000  (-0.000216  0.000432 -0.000234)
 49:    942.74   0.001359    6.87  0.000450  ( 0.004061 -0.017365  0.011475)
 50:    970.14   0.012938   65.38  0.004162  (-0.059099  0.025259 -0.005562)
 51:    990.97   0.014478   73.17  0.004559  (-0.052356  0.039587  0.015839)
 52:   1019.55   0.028755  145.32  0.008801  (-0.056951  0.069545  0.026861)
 53:   1072.02   0.011080   55.99  0.003225  (-0.055819  0.009990 -0.003140)
 54:   1073.42   0.007792   39.38  0.002265  ( 0.020357 -0.041305 -0.012026)
 55:   1079.00   0.022081  111.59  0.006386  ( 0.017853 -0.065075 -0.042810)
 56:   1107.03   0.050343  254.41  0.014191  ( 0.103352 -0.039027 -0.044572)
 57:   1115.06   0.174964  884.20  0.048966  (-0.142602  0.127249  0.111528)
 58:   1126.04   0.000887    4.48  0.000246  (-0.008137  0.008943  0.009985)
 59:   1130.43   0.000384    1.94  0.000106  ( 0.006758 -0.001022  0.007703)
 60:   1172.77   0.001478    7.47  0.000393  ( 0.015618 -0.008680 -0.008610)
 61:   1173.93   0.000605    3.06  0.000161  ( 0.006128 -0.011094 -0.000350)
 62:   1194.60   0.024358  123.10  0.006363  ( 0.064534 -0.036220 -0.029774)
 63:   1206.82   0.005192   26.24  0.001342  ( 0.013692  0.033575  0.005260)
 64:   1247.81   0.039554  199.89  0.009892  ( 0.082374 -0.051811 -0.020548)
 65:   1255.96   0.000046    0.23  0.000011  ( 0.000666 -0.002280 -0.002385)
 66:   1275.55   0.001357    6.86  0.000332  (-0.013221 -0.004202  0.011816)
 67:   1279.80   0.006773   34.23  0.001651  ( 0.014588 -0.032028 -0.020318)
 68:   1327.30   0.014461   73.08  0.003400  (-0.033220  0.040374  0.025813)
 69:   1362.95   0.006813   34.43  0.001560  (-0.030920 -0.023735 -0.006369)
 70:   1376.74   0.001987   10.04  0.000450  ( 0.018342  0.009173  0.005465)
 71:   1405.44   0.008087   40.87  0.001796  (-0.026333  0.026822  0.019561)
 72:   1412.95   0.045696  230.93  0.010092  (-0.075892  0.050526  0.042190)
 73:   1428.74   0.001582    8.00  0.000346  ( 0.012662  0.011943  0.006530)
 74:   1438.57   0.002860   14.45  0.000620  (-0.006748 -0.000334 -0.023974)
 75:   1444.06   0.000673    3.40  0.000145  (-0.004273 -0.010272 -0.004661)
 76:   1456.34   0.011715   59.20  0.002510  (-0.044739  0.022316 -0.003270)
 77:   1462.84   0.004322   21.84  0.000922  (-0.003413 -0.004851 -0.029778)
 78:   1475.83   0.000059    0.30  0.000013  (-0.003301 -0.001073  0.000715)
 79:   1484.46   0.006694   33.83  0.001407  (-0.024294 -0.027070  0.009176)
 80:   1489.80   0.002307   11.66  0.000483  (-0.011876  0.010062 -0.015526)
 81:   1501.50   0.001131    5.71  0.000235  ( 0.015051 -0.000820  0.002795)
 82:   1506.09   0.000729    3.68  0.000151  (-0.011685 -0.003353  0.001782)
 83:   1522.01   0.020896  105.60  0.004284  (-0.054655  0.035957  0.002076)
 84:   1544.13   0.002029   10.25  0.000410  ( 0.000730 -0.018704 -0.007720)
 85:   1549.61   0.004853   24.52  0.000977  (-0.030875 -0.001447  0.004681)
 86:   1561.01   0.004376   22.11  0.000875  (-0.002801 -0.021513 -0.020102)
 87:   1723.17   0.201472  1018.16  0.036486  (-0.019459 -0.027219 -0.188061)
 88:   3034.04   0.006327   31.98  0.000651  (-0.019662  0.015409 -0.005175)
 89:   3038.69   0.018832   95.17  0.001934  ( 0.009561 -0.021964 -0.036880)
 90:   3084.80   0.012503   63.19  0.001265  (-0.022836 -0.025007  0.010865)
 91:   3087.93   0.000676    3.42  0.000068  (-0.005266 -0.005748  0.002743)
 92:   3146.48   0.004720   23.85  0.000468  ( 0.004356 -0.019635 -0.007977)
 93:   3172.50   0.000612    3.09  0.000060  (-0.004716  0.001642 -0.005935)
 94:   3174.58   0.000758    3.83  0.000074  (-0.007244  0.004045  0.002378)
 95:   3182.52   0.001706    8.62  0.000167  (-0.004025  0.011106  0.005266)
 96:   3187.89   0.000336    1.70  0.000033  ( 0.001582 -0.004943 -0.002433)
 97:   3191.95   0.001002    5.06  0.000098  ( 0.007480 -0.006444  0.000704)
 98:   3193.59   0.003121   15.77  0.000305  (-0.009801  0.012597  0.007087)
 99:   3196.02   0.002952   14.92  0.000288  (-0.015272 -0.007131 -0.002022)
100:   3205.09   0.003761   19.00  0.000366  ( 0.005003  0.015878  0.009434)
101:   3222.86   0.000545    2.76  0.000053  (-0.006595  0.000698  0.002970)

* The epsilon (eps) is given for a Dirac delta lineshape.
** The dipole moment derivative (T) already includes vibrational overlap.

The first frequency considered to be a vibration is 6
The total number of vibrations considered is 96


--------------------------
THERMOCHEMISTRY AT 298.15K
--------------------------

Temperature         ... 298.15 K
Pressure            ... 1.00 atm
Total Mass          ... 266.30 AMU

Throughout the following assumptions are being made:
  (1) The electronic state is orbitally nondegenerate
  (2) There are no thermally accessible electronically excited states
  (3) Hindered rotations indicated by low frequency modes are not
      treated as such but are treated as vibrations and this may
      cause some error
  (4) All equations used are the standard statistical mechanics
      equations for an ideal gas
  (5) All vibrations are strictly harmonic

freq.      26.21  E(vib)   ...       0.56 
freq.      29.38  E(vib)   ...       0.55 
freq.      37.42  E(vib)   ...       0.54 
freq.      45.22  E(vib)   ...       0.53 
freq.      66.35  E(vib)   ...       0.50 
freq.      90.99  E(vib)   ...       0.47 
freq.     104.50  E(vib)   ...       0.46 
freq.     125.50  E(vib)   ...       0.43 
freq.     182.02  E(vib)   ...       0.37 
freq.     198.23  E(vib)   ...       0.35 
freq.     208.53  E(vib)   ...       0.34 
freq.     234.95  E(vib)   ...       0.32 
freq.     242.23  E(vib)   ...       0.31 
freq.     262.03  E(vib)   ...       0.29 
freq.     344.68  E(vib)   ...       0.23 
freq.     357.92  E(vib)   ...       0.22 
freq.     383.59  E(vib)   ...       0.20 
freq.     402.30  E(vib)   ...       0.19 
freq.     449.97  E(vib)   ...       0.17 
freq.     460.75  E(vib)   ...       0.16 
freq.     472.90  E(vib)   ...       0.15 
freq.     493.39  E(vib)   ...       0.14 
freq.     504.95  E(vib)   ...       0.14 
freq.     525.27  E(vib)   ...       0.13 
freq.     538.08  E(vib)   ...       0.12 
freq.     587.94  E(vib)   ...       0.10 
freq.     603.52  E(vib)   ...       0.10 
freq.     624.55  E(vib)   ...       0.09 
freq.     675.39  E(vib)   ...       0.08 
freq.     685.75  E(vib)   ...       0.07 
freq.     691.19  E(vib)   ...       0.07 
freq.     709.46  E(vib)   ...       0.07 
freq.     739.82  E(vib)   ...       0.06 
freq.     750.63  E(vib)   ...       0.06 
freq.     796.30  E(vib)   ...       0.05 
freq.     808.12  E(vib)   ...       0.05 
freq.     818.94  E(vib)   ...       0.05 
freq.     835.64  E(vib)   ...       0.04 
freq.     837.16  E(vib)   ...       0.04 
freq.     843.34  E(vib)   ...       0.04 
freq.     891.73  E(vib)   ...       0.03 
freq.     914.10  E(vib)   ...       0.03 
freq.     922.47  E(vib)   ...       0.03 
freq.     942.74  E(vib)   ...       0.03 
freq.     970.14  E(vib)   ...       0.03 
freq.     990.97  E(vib)   ...       0.02 
freq.    1019.55  E(vib)   ...       0.02 
freq.    1072.02  E(vib)   ...       0.02 
freq.    1073.42  E(vib)   ...       0.02 
freq.    1079.00  E(vib)   ...       0.02 
freq.    1107.03  E(vib)   ...       0.02 
freq.    1115.06  E(vib)   ...       0.01 
freq.    1126.04  E(vib)   ...       0.01 
freq.    1130.43  E(vib)   ...       0.01 
freq.    1172.77  E(vib)   ...       0.01 
freq.    1173.93  E(vib)   ...       0.01 
freq.    1194.60  E(vib)   ...       0.01 
freq.    1206.82  E(vib)   ...       0.01 
freq.    1247.81  E(vib)   ...       0.01 
freq.    1255.96  E(vib)   ...       0.01 
freq.    1275.55  E(vib)   ...       0.01 
freq.    1279.80  E(vib)   ...       0.01 
freq.    1327.30  E(vib)   ...       0.01 
freq.    1362.95  E(vib)   ...       0.01 
freq.    1376.74  E(vib)   ...       0.01 
freq.    1405.44  E(vib)   ...       0.00 
freq.    1412.95  E(vib)   ...       0.00 
freq.    1428.74  E(vib)   ...       0.00 
freq.    1438.57  E(vib)   ...       0.00 
freq.    1444.06  E(vib)   ...       0.00 
freq.    1456.34  E(vib)   ...       0.00 
freq.    1462.84  E(vib)   ...       0.00 
freq.    1475.83  E(vib)   ...       0.00 
freq.    1484.46  E(vib)   ...       0.00 
freq.    1489.80  E(vib)   ...       0.00 
freq.    1501.50  E(vib)   ...       0.00 
freq.    1506.09  E(vib)   ...       0.00 
freq.    1522.01  E(vib)   ...       0.00 
freq.    1544.13  E(vib)   ...       0.00 
freq.    1549.61  E(vib)   ...       0.00 
freq.    1561.01  E(vib)   ...       0.00 
freq.    1723.17  E(vib)   ...       0.00 
freq.    3034.04  E(vib)   ...       0.00 
freq.    3038.69  E(vib)   ...       0.00 
freq.    3084.80  E(vib)   ...       0.00 
freq.    3087.93  E(vib)   ...       0.00 
freq.    3146.48  E(vib)   ...       0.00 
freq.    3172.50  E(vib)   ...       0.00 
freq.    3174.58  E(vib)   ...       0.00 
freq.    3182.52  E(vib)   ...       0.00 
freq.    3187.89  E(vib)   ...       0.00 
freq.    3191.95  E(vib)   ...       0.00 
freq.    3193.59  E(vib)   ...       0.00 
freq.    3196.02  E(vib)   ...       0.00 
freq.    3205.09  E(vib)   ...       0.00 
freq.    3222.86  E(vib)   ...       0.00 

------------
INNER ENERGY
------------

The inner energy is: U= E(el) + E(ZPE) + E(vib) + E(rot) + E(trans)
    E(el)   - is the total energy from the electronic structure calculation
              = E(kin-el) + E(nuc-el) + E(el-el) + E(nuc-nuc)
    E(ZPE)  - the the zero temperature vibrational energy from the frequency calculation
    E(vib)  - the the finite temperature correction to E(ZPE) due to population
              of excited vibrational states
    E(rot)  - is the rotational thermal energy
    E(trans)- is the translational thermal energy

Summary of contributions to the inner energy U:
Electronic energy                ...   -878.30217404 Eh
Zero point energy                ...      0.26324119 Eh     165.19 kcal/mol
Thermal vibrational correction   ...      0.01487430 Eh       9.33 kcal/mol
Thermal rotational correction    ...      0.00141627 Eh       0.89 kcal/mol
Thermal translational correction ...      0.00141627 Eh       0.89 kcal/mol
-----------------------------------------------------------------------
Total thermal energy                   -878.02122600 Eh


Summary of corrections to the electronic energy:
(perhaps to be used in another calculation)
Total thermal correction                  0.01770684 Eh      11.11 kcal/mol
Non-thermal (ZPE) correction              0.26324119 Eh     165.19 kcal/mol
-----------------------------------------------------------------------
Total correction                          0.28094803 Eh     176.30 kcal/mol


--------
ENTHALPY
--------

The enthalpy is H = U + kB*T
                kB is Boltzmann's constant
Total free energy                 ...   -878.02122600 Eh 
Thermal Enthalpy correction       ...      0.00094421 Eh       0.59 kcal/mol
-----------------------------------------------------------------------
Total Enthalpy                    ...   -878.02028179 Eh


Note: Only C1 symmetry has been detected, increase convergence thresholds 
      if your molecule has a higher symmetry. Symmetry factor of 1.0 is   
      used for the rotational entropy correction. 
 

Note: Rotational entropy computed according to Herzberg 
Infrared and Raman Spectra, Chapter V,1, Van Nostrand Reinhold, 1945 
Point Group:  C1, Symmetry Number:   1  
Rotational constants in cm-1:     0.017018     0.009422     0.006469 

Vibrational entropy computed according to the QRRHO of S. Grimme
Chem.Eur.J. 2012 18 9955


-------
ENTROPY
-------

The entropy contributions are T*S = T*(S(el)+S(vib)+S(rot)+S(trans))
     S(el)   - electronic entropy
     S(vib)  - vibrational entropy
     S(rot)  - rotational entropy
     S(trans)- translational entropy
The entropies will be listed as multiplied by the temperature to get
units of energy

Electronic entropy                ...      0.00000000 Eh      0.00 kcal/mol
Vibrational entropy               ...      0.02636744 Eh     16.55 kcal/mol
Rotational entropy                ...      0.01601568 Eh     10.05 kcal/mol
Translational entropy             ...      0.02025841 Eh     12.71 kcal/mol
-----------------------------------------------------------------------
Final entropy term                ...      0.06264154 Eh     39.31 kcal/mol

In case the symmetry of your molecule has not been determined correctly
or in case you have a reason to use a different symmetry number we print 
out the resulting rotational entropy values for sn=1,12 :
 --------------------------------------------------------
|  sn= 1 | S(rot)=       0.01601568 Eh     10.05 kcal/mol|
|  sn= 2 | S(rot)=       0.01536122 Eh      9.64 kcal/mol|
|  sn= 3 | S(rot)=       0.01497839 Eh      9.40 kcal/mol|
|  sn= 4 | S(rot)=       0.01470677 Eh      9.23 kcal/mol|
|  sn= 5 | S(rot)=       0.01449608 Eh      9.10 kcal/mol|
|  sn= 6 | S(rot)=       0.01432393 Eh      8.99 kcal/mol|
|  sn= 7 | S(rot)=       0.01417839 Eh      8.90 kcal/mol|
|  sn= 8 | S(rot)=       0.01405231 Eh      8.82 kcal/mol|
|  sn= 9 | S(rot)=       0.01394110 Eh      8.75 kcal/mol|
|  sn=10 | S(rot)=       0.01384162 Eh      8.69 kcal/mol|
|  sn=11 | S(rot)=       0.01375163 Eh      8.63 kcal/mol|
|  sn=12 | S(rot)=       0.01366948 Eh      8.58 kcal/mol|
 --------------------------------------------------------


-------------------
GIBBS FREE ENERGY
-------------------

The Gibbs free energy is G = H - T*S

Total enthalpy                    ...   -878.02028179 Eh 
Total entropy correction          ...     -0.06264154 Eh    -39.31 kcal/mol
-----------------------------------------------------------------------
Final Gibbs free energy         ...   -878.08292333 Eh

For completeness - the Gibbs free energy minus the electronic energy
G-E(el)                           ...      0.21925070 Eh    137.58 kcal/mol



Timings for individual modules:

Sum of individual times         ...   375576.491 sec (=6259.608 min)
GTO integral calculation        ...       68.076 sec (=   1.135 min)   0.0 %
SCF iterations                  ...    19962.497 sec (= 332.708 min)   5.3 %
CIS module                      ...     5187.971 sec (=  86.466 min)   1.4 %
SCF Gradient evaluation         ...    26975.405 sec (= 449.590 min)   7.2 %
Geometry relaxation             ...        2.541 sec (=   0.042 min)   0.0 %
Numerical frequency calculation ...   323380.001 sec (=5389.667 min)  86.1 %
                             ****ORCA TERMINATED NORMALLY****
TOTAL RUN TIME: 4 days 7 hours 56 minutes 25 seconds 934 msec
