
                                 *****************
                                 * O   R   C   A *
                                 *****************

                                            #,                                       
                                            ###                                      
                                            ####                                     
                                            #####                                    
                                            ######                                   
                                           ########,                                 
                                     ,,################,,,,,                         
                               ,,#################################,,                 
                          ,,##########################################,,             
                       ,#########################################, ''#####,          
                    ,#############################################,,   '####,        
                  ,##################################################,,,,####,       
                ,###########''''           ''''###############################       
              ,#####''   ,,,,##########,,,,          '''####'''          '####       
            ,##' ,,,,###########################,,,                        '##       
           ' ,,###''''                  '''############,,,                           
         ,,##''                                '''############,,,,        ,,,,,,###''
      ,#''                                            '''#######################'''  
     '                                                          ''''####''''         
             ,#######,   #######,   ,#######,      ##                                
            ,#'     '#,  ##    ##  ,#'     '#,    #''#        ,####,   ,####,        
            ##       ##  ##   ,#'  ##            #'  '#       #'       #'  '#        
            ##       ##  #######   ##           ,######,      #####,   #    #        
            '#,     ,#'  ##    ##  '#,     ,#' ,#      #,     #,   #   #,  ,#        
             '#######'   ##     ##  '#######'  #'      '#     '####' # '####'        



                #########################################################
                #                        -***-                          #
                #          Department of theory and spectroscopy        #
                #                                                       #
                #                      Frank Neese                      #
                #                                                       #
                #     Directorship, Architecture, Infrastructure        #
                #                    SHARK, DRIVERS                     #
                #        Core code/Algorithms in most modules           #
                #                                                       #
                #        Max Planck Institute fuer Kohlenforschung      #
                #                Kaiser Wilhelm Platz 1                 #
                #                 D-45470 Muelheim/Ruhr                 #
                #                      Germany                          #
                #                                                       #
                #                  All rights reserved                  #
                #                        -***-                          #
                #########################################################


                         Program Version 6.0.1  -  RELEASE   -


 With contributions from (in alphabetic order):
[Max-Planck-Institut fuer Kohlenforschung]                               
  Daniel Aravena         : Magnetic Suceptibility                        
  Michael Atanasov       : Ab Initio Ligand Field Theory (pilot matlab implementation)
  Alexander A. Auer      : GIAO ZORA, VPT2 properties, NMR spectrum      
  Ute Becker             : All parallelization in ORCA, NUMFREQ, NUMCALC 
  Giovanni Bistoni       : ED, misc. LED, open-shell LED, HFLD           
  Martin Brehm           : Molecular dynamics                            
  Dmytro Bykov           : pre 5.0 version of the SCF Hessian            
  Marcos Casanova-Páez   : Triplet and SCS-CIS(D). UHF-(DLPNO)-IP/EA/STEOM-CCSD. UHF-CVS-IP/STEOM-CCSD   
  Vijay G. Chilkuri      : MRCI spin determinant printing, contributions to CSF-ICE 
  Pauline Colinet        : FMM embedding                                 
  Dipayan Datta          : RHF DLPNO-CCSD density                        
  Achintya Kumar Dutta   : EOM-CC, STEOM-CC                              
  Nicolas Foglia         : Exact transition moments, OPA infrastructure, MCD improvements    
  Dmitry Ganyushin       : Spin-Orbit,Spin-Spin,Magnetic field MRCI      
  Miquel Garcia-Rates    : C-PCM and meta-GGA Hessian, CCSD/C-PCM, Gaussian charge scheme 
  Tiago L. C. Gouveia    : GS-ROHF, GS-ROCIS                             
  Yang Guo               : DLPNO-NEVPT2, F12-NEVPT2, CIM, IAO-localization        
  Andreas Hansen         : Spin unrestricted coupled pair/coupled cluster methods 
  Ingolf Harden          : AUTO-CI MPn and infrastructure                
  Benjamin Helmich-Paris : MC-RPA, TRAH-(SCF,CASSCF), AVAS, COSX integrals, SCF dyn. polar. 
  Lee Huntington         : MR-EOM, pCC                                   
  Robert Izsak           : Overlap fitted RIJCOSX, COSX-SCS-MP3, EOM     
  Riya Kayal             : Wick's Theorem for AUTO-CI, AUTO-CI UHF-CCSDT 
  Emily Kempfer          : AUTO-CI, RHF CISDT and CCSDT                  
  Christian Kollmar      : KDIIS, OOCD, Brueckner-CCSD(T), CCSD density, CASPT2, CASPT2-K, improved NEVPT2 
  Axel Koslowski         : Symmetry handling                             
  Simone Kossmann        : meta-GGA functionals, TD-DFT gradient, OOMP2, (MP2 Hessian; deprecated post 5.0) 
  Lucas Lang             : DCDCAS                                        
  Marvin Lechner         : AUTO-CI (C++ implementation), FIC-MRCC        
  Spencer Leger          : CASSCF response                               
  Dagmar Lenk            : GEPOL surface, SMD, ORCA-2-JSON               
  Dimitrios Liakos       : Extrapolation schemes; Compound Job, initial MDCI parallelization 
  Dimitrios Manganas     : Further ROCIS development; embedding schemes. LFT, Crystal Embedding 
  Dimitrios Pantazis     : SARC Basis sets                               
  Anastasios Papadopoulos: AUTO-CI, single reference methods and gradients 
  Taras Petrenko         : pre 6.0 DFT Hessian and TD-DFT gradient, (ASA, deprecated), ECA, 1-Electron XAS/XES, NRVS 
  Peter Pinski           : DLPNO-MP2, DLPNO-MP2 Gradient                 
  Christoph Reimann      : Effective Core Potentials                     
  Marius Retegan         : Local ZFS, SOC                                
  Christoph Riplinger    : Optimizer, TS searches, QM/MM, DLPNO-CCSD(T), (RO)-DLPNO pert. Triples 
  Michael Roemelt        : Original ROCIS implementation                 
  Masaaki Saitow         : Open-shell DLPNO-CCSD energy and density      
  Barbara Sandhoefer     : DKH picture change effects                    
  Kantharuban Sivalingam : CASSCF convergence/infrastructure, NEVPT2 and variants, FIC-MRCI 
  Bernardo de Souza      : ESD, SOC TD-DFT                               
  Georgi L. Stoychev     : AutoAux, RI-MP2 NMR, DLPNO-MP2 response, X2C  
  Van Anh Tran           : RI-MP2 g-tensors                              
  Willem Van den Heuvel  : Paramagnetic NMR                              
  Zikuan Wang            : NOTCH, Electric field optimization            
  Frank Wennmohs         : Technical directorship and infrastructure     
  Hang Xu                : AUTO-CI-Response properties                   
                                                                         
[FACCTs GmbH]                                                            
  Markus Bursch, Miquel Garcia-Rates, Christoph Riplinger, Bernardo de Souza, Georgi L. Stoychev 
                                                                 
  APM, Basis sets (HGBS, AHGBS, def-TZVP (Ac-Lr), def2-XVPD (La-Lu)), CI-OPT, improved COSX, DLPNO-Multilevel,           
  DOCKER, DRACO, updates on ESD, GOAT, IRC, LR-CPCM, MBIS, meta-GGA TD-DFT gradient, ML-optimized integration grids, 
  MM, NACMEs, nearIR, NEB, NEB-TS, NL-DFT gradient (VV10), 2- and 3-layer-ONIOM, interface openCOSMO-RS, QMMM,   
  Crystal-QMMM, SF, symmetry and pop. for TD-DFT, r2SCAN hybrids, SOLVATOR                                   
                                                                         
[Other institutions]                                                     
  V. Asgeirsson          : NEB                                           
  Christoph Bannwarth    : sTDA-DFT, sTD-DFT, PBEh-3c, B97-3c, D3        
  Sebastian Ehlert       : rSCAN, r2SCAN, r2SCAN-3c, D4, dhf basis sets  
  Marvin Friede          : D4 for Fr, Ra, Ac-Lr                          
  Lars Goerigk           : TD-DFT with DH, B97 family of functionals     
  Stefan Grimme          : VdW corrections, initial TS optimization, DFT functionals, gCP, sTDA/sTD-DF 
  Waldemar Hujo          : DFT-NL                                        
  H. Jonsson             : NEB                                           
  Holger Kruse           : gCP                                           
  Marcel Mueller         : wB97X-3c, vDZP basis set                      
  Hagen Neugebauer       : wr2SCAN                                       
  Tobias Risthaus        : range-separated hybrid DFT                    
  Lukas Wittmann         : regularized MP2, r2SCAN double-hybrids, wr2SCAN        
                                                                         
We gratefully acknowledge several colleagues who have allowed us to      
interface, adapt or use parts of their codes:                            
  Ed Valeev, F. Pavosevic, A. Kumar             : LibInt (2-el integral package), F12 methods 
  Garnet Chan, S. Sharma, J. Yang, R. Olivares  : DMRG                   
  Ulf Ekstrom                                   : XCFun DFT Library      
  Mihaly Kallay                                 : mrcc  (arbitrary order and MRCC methods)
  Frank Weinhold                                : gennbo (NPA and NBO analysis)           
  Simon Mueller                                 : openCOSMO-RS                            
  Christopher J. Cramer and Donald G. Truhlar   : smd solvation model                     
  S Lehtola, MJT Oliveira, MAL Marques          : LibXC Library                           
  Liviu Ungur et al                             : ANISO software                          


 Your calculation uses the libint2 library for the computation of 2-el integrals
 For citations please refer to: http://libint.valeyev.net

 Your ORCA version has been built with support for libXC version: 6.2.2
 For citations please refer to: https://libxc.gitlab.io

 This ORCA versions uses:
   CBLAS   interface :  Fast vector & matrix operations
   LAPACKE interface :  Fast linear algebra routines
   SCALAPACK package :  Parallel linear algebra routines
   Shared memory     :  Shared parallel matrices
   BLAS/LAPACK       :  OpenBLAS 0.3.27  USE64BITINT DYNAMIC_ARCH NO_AFFINITY Zen SINGLE_THREADED
        Core in use  :  Zen
   Copyright (c) 2011-2014, The OpenBLAS Project


XCFun DFT library Copyright 2009-2010 Ulf Ekstrom and contributors.
See http://admol.org/xcfun for more information.
This is free software; see the source code for copying conditions.
There is ABSOLUTELY NO WARRANTY; not even for MERCHANTABILITY or FITNESS FOR A PARTICULAR PURPOSE.
For details see the documentation.
Scientific users of this library should cite U. Ekstrom, L. Visscher, R. Bast, A. J. Thorvaldsen and K. Ruud;
J.Chem.Theor.Comp. 2010, DOI: 10.1021/ct100117s
XCFun Version 0.99 

================================================================================

----- Orbital basis set information -----
Your calculation utilizes the basis: def2-TZVP(-f)
   F. Weigend and R. Ahlrichs, Phys. Chem. Chem. Phys. 7, 3297 (2005).

----- AuxJ basis set information -----
Your calculation utilizes the auxiliary basis: def2/J
   F. Weigend, Phys. Chem. Chem. Phys. 8, 1057 (2006).

----- AuxC basis set information -----
Your calculation utilizes the auxiliary basis: def2-TZVP/C
  H-La, Hf-Rn : A. Hellweg, C. Hattig, S. Hofener and W. Klopper, Theor. Chem. Acc. 117, 587 (2007).
        Ce-Lu : J. Chmela and M. E. Harding, Mol. Phys. (2018).

================================================================================
                                        WARNINGS
                       Please study these warnings very carefully!
================================================================================

INFO   : Checking CIS options ...

WARNING: (CIS/TDDFT): Analytic excited state gradients requested
  ===> : turning on equilibrium dielectric conditions.

WARNING: Geometry Optimization
  ===> : Switching off AutoStart
         For restart on a previous wavefunction, please use MOREAD

WARNING: CIS/ROCIS methods need fully converged wavefunctions
  ===> : Setting SCFConvForced true
         You can overwrite this default with %scf ConvForced false 


================================================================================
                                       INPUT FILE
================================================================================
NAME = hbq-dcp-es.inp
|  1> ! CAM-B3LYP  OPT Def2-TZVP(-f) Def2-TZVP/C Def2/J RIJCOSX TightSCF CPCM(Water) AllPop SOSCF
|  2> %pal nprocs 200 end
|  3> 
|  4> %tddft
|  5>     NRoots 3
|  6>     IRoot 1
|  7> end 
|  8> 
|  9> * xyz 1 1 
| 10>   C          -4.64237910852225      0.90074384004881      0.69917274405417
| 11>   C          -5.28156605303999      0.13075979146694      1.66926122027777
| 12>   C          -4.54327396904873     -0.58564748494885      2.58095448007522
| 13>   C          -3.27169649488025      1.04206555695424      0.71731868509203
| 14>   C          -2.50490957418674      0.44287658543326      1.73623715227843
| 15>   O          -2.68678927742325      1.72050041693409     -0.34082336205659
| 16>   C          -3.14704102151241     -0.47729835550569      2.60670096840364
| 17>   C          -2.35090670614830     -1.32666462810763      3.43153399565577
| 18>   C          -1.00115563821095     -1.33204155425670      3.33440369538189
| 19>   C          -1.09869595293440      0.62820532834421      1.87162367844322
| 20>   C          -0.32771096089364     -0.35231743115527      2.54805006485395
| 21>   N          -0.47293660610577      1.73647336116021      1.39972954884455
| 22>   C           0.86296010680084      1.78051083224486      1.29545115090857
| 23>   C           1.65655212667705      0.74786517987797      1.74421645237403
| 24>   C           1.06488637947183     -0.28572203479121      2.45028443683986
| 25>   C          -1.78157991538960      1.02758686605176     -1.11905031660665
| 26>   O          -1.18429128302571      0.04620535479227     -0.70504355287978
| 27>   N          -1.63411306246985      1.55542847351298     -2.32815911017253
| 28>   C          -2.45016661087072      2.61407025947913     -2.87922776676178
| 29>   C          -0.65892248815788      0.99497352147798     -3.23942826292462
| 30>   H          -1.15889804744480      0.61268583660677     -4.12964680554221
| 31>   H          -0.13270428456686      0.18147600397307     -2.74593224432684
| 32>   H           0.05074679058701      1.76817749387824     -3.53290699134358
| 33>   H          -1.80958229060585      3.42949734444561     -3.21186042010690
| 34>   H          -3.14960658890291      2.97901861239857     -2.13532977423722
| 35>   H          -3.00235550656319      2.22971024245868     -3.73878867080728
| 36>   H          -5.02787309335558     -1.25778000926102      3.27091926785276
| 37>   H          -5.20681028425261      1.37737101356815     -0.08604517254295
| 38>   H          -6.35693580598722      0.05545275142508      1.65676367445054
| 39>   H          -2.86207045802463     -2.01786051316972      4.08256051359162
| 40>   H          -0.40181416615686     -2.04738284958866      3.87352204674550
| 41>   H           1.26733417043888      2.68919133486208      0.87643728032925
| 42>   H           2.72402744321644      0.79562499354649      1.60924665224891
| 43>   H           1.66579869206859     -1.03756973084835      2.93812776490475
| 44>   P          -1.25452980131769      3.31777159255318      1.41201637350149
| 45>   O          -2.65031317320355      3.37296121406261      1.84379138874734
| 46>   O          -0.82485039090071      3.80959601939058     -0.01244383810532
| 47>   O          -0.25870018084975      4.07670597101606      2.38844167905458
| 48>   C          -1.43270605737680      4.99379673134970     -0.56521341753450
| 49>   C          -0.59380089737657      4.26918208306195      3.76697768564561
| 50>   C          -1.13528219657633      6.23005767178507      0.25872582731228
| 51>   H          -2.51183885179510      4.83396710307569     -0.63021759430296
| 52>   H          -1.00392231114490      5.07444182096507     -1.56461691913453
| 53>   H          -1.61548657995453      6.15525994462814      1.23308778803460
| 54>   H          -1.52054485430823      7.10588064594018     -0.25543485710295
| 55>   H          -0.06383439506726      6.34499334689063      0.40206198579419
| 56>   C          -0.41670245963031      2.99448517532026      4.56968357025510
| 57>   H          -1.62793608238993      4.61875702976842      3.83355019064643
| 58>   H           0.08277751455627      5.05358191343974      4.10993769201413
| 59>   H           0.58699616911074      2.59850655009821      4.43714674425446
| 60>   H          -1.14587273499175      2.25025837538734      4.25268354079607
| 61>   H          -0.57528318879543      3.20867042401483      5.62239913172421
| 62> *
| 63> 
| 64> 
| 65>                          ****END OF INPUT****
================================================================================

                       *****************************
                       * Geometry Optimization Run *
                       *****************************

Geometry optimization settings:
Update method            Update   .... BFGS
Choice of coordinates    CoordSys .... (2022) Redundant Internals
Initial Hessian          InHess   .... Almloef's Model
Max. no of cycles        MaxIter  .... 156

Convergence Tolerances:
Energy Change            TolE     ....  5.0000e-06 Eh
Max. Gradient            TolMAXG  ....  3.0000e-04 Eh/bohr
RMS Gradient             TolRMSG  ....  1.0000e-04 Eh/bohr
Max. Displacement        TolMAXD  ....  4.0000e-03 bohr
RMS Displacement         TolRMSD  ....  2.0000e-03 bohr
Strict Convergence                .... False

------------------------------------------------------------------------------
                        ORCA OPTIMIZATION COORDINATE SETUP
------------------------------------------------------------------------------

The optimization will be done in redundant internal coordinates (2022)
Making redundant internal coordinates   ...  (2022 redundants) done
Evaluating the initial hessian          ...  (Almloef) done
Evaluating the coordinates              ...  done
Calculating the B-matrix                .... done
Calculating the G-matrix                .... done
Diagonalizing the G-matrix              .... done
Small eigenvalue found = 1.643e-03
Small eigenvalue found = 4.767e-03
Small eigenvalue found = 5.052e-03
Small eigenvalue found = 7.312e-03
Small eigenvalue found = 1.073e-02
Small eigenvalue found = 1.198e-02
Small eigenvalue found = 1.824e-02
Small eigenvalue found = 2.079e-02
Small eigenvalue found = 2.465e-02
Small eigenvalue found = 2.977e-02
The first mode is                       ....  109
The number of degrees of freedom        ....  150

    -----------------------------------------------------------------
                    Redundant Internal Coordinates


    -----------------------------------------------------------------
         Definition                    Initial Value    Approx d2E/dq
    -----------------------------------------------------------------
      1. B(C   1,C   0)                  1.3937         0.616274   
      2. B(C   2,C   1)                  1.3746         0.661186   
      3. B(C   3,C   0)                  1.3781         0.652792   
      4. B(C   4,C   3)                  1.4090         0.582747   
      5. B(O   5,C   3)                  1.3864         0.567085   
      6. B(C   6,C   4)                  1.4201         0.559335   
      7. B(C   6,C   2)                  1.4007         0.600786   
      8. B(C   7,C   6)                  1.4267         0.545901   
      9. B(C   8,C   7)                  1.3533         0.715101   
     10. B(C   9,C   4)                  1.4248         0.549775   
     11. B(C  10,C   9)                  1.4189         0.561777   
     12. B(C  10,C   8)                  1.4254         0.548624   
     13. B(N  11,C   9)                  1.3574         0.630808   
     14. B(C  12,N  11)                  1.3407         0.670743   
     15. B(C  13,C  12)                  1.3775         0.654131   
     16. B(C  14,C  13)                  1.3845         0.637496   
     17. B(C  14,C  10)                  1.3976         0.607566   
     18. B(C  15,O   5)                  1.3803         0.579942   
     19. B(O  16,C  15)                  1.2212         1.040464   
     20. B(N  17,C  15)                  1.3275         0.703979   
     21. B(C  18,N  17)                  1.4458         0.455877   
     22. B(C  19,N  17)                  1.4476         0.452891   
     23. B(H  20,C  19)                  1.0902         0.359792   
     24. B(H  21,C  19)                  1.0873         0.363689   
     25. B(H  22,C  19)                  1.0898         0.360401   
     26. B(H  23,C  18)                  1.0890         0.361430   
     27. B(H  24,C  18)                  1.0843         0.367669   
     28. B(H  25,C  18)                  1.0916         0.358050   
     29. B(H  26,C   2)                  1.0783         0.375967   
     30. B(H  27,C   0)                  1.0781         0.376176   
     31. B(H  28,C   1)                  1.0781         0.376225   
     32. B(H  29,C   7)                  1.0784         0.375822   
     33. B(H  30,C   8)                  1.0778         0.376658   
     34. B(H  31,C  12)                  1.0793         0.374599   
     35. B(H  32,C  13)                  1.0770         0.377668   
     36. B(H  33,C  14)                  1.0791         0.374873   
     37. B(P  34,N  11)                  1.7640         0.476152   
     38. B(O  35,P  34)                  1.4621         1.443330   
     39. B(O  36,P  34)                  1.5670         0.981566   
     40. B(O  37,P  34)                  1.5878         0.909525   
     41. B(C  38,O  36)                  1.4413         0.463462   
     42. B(C  39,O  37)                  1.4317         0.480155   
     43. B(C  40,C  38)                  1.5151         0.394521   
     44. B(H  41,C  38)                  1.0928         0.356363   
     45. B(H  42,H  23)                  2.4634         0.000444   
     46. B(H  42,C  38)                  1.0905         0.359454   
     47. B(H  43,C  40)                  1.0888         0.361638   
     48. B(H  44,C  40)                  1.0862         0.365147   
     49. B(H  45,C  40)                  1.0871         0.363976   
     50. B(C  46,C  39)                  1.5168         0.392198   
     51. B(H  47,C  39)                  1.0936         0.355304   
     52. B(H  48,C  39)                  1.0912         0.358549   
     53. B(H  49,C  46)                  1.0871         0.363963   
     54. B(H  50,C  46)                  1.0891         0.361346   
     55. B(H  51,C  46)                  1.0859         0.365531   
     56. A(C   1,C   0,C   3)          120.2415         0.437639   
     57. A(C   1,C   0,H  27)          120.7357         0.355167   
     58. A(C   3,C   0,H  27)          119.0115         0.358658   
     59. A(C   0,C   1,C   2)          120.2153         0.438649   
     60. A(C   0,C   1,H  28)          119.2082         0.355175   
     61. A(C   2,C   1,H  28)          120.4665         0.359447   
     62. A(C   1,C   2,H  26)          120.5235         0.359405   
     63. A(C   6,C   2,H  26)          118.9771         0.353605   
     64. A(C   1,C   2,C   6)          120.4825         0.436640   
     65. A(C   4,C   3,O   5)          122.0362         0.419715   
     66. A(C   0,C   3,O   5)          117.3721         0.428321   
     67. A(C   0,C   3,C   4)          120.4784         0.433253   
     68. A(C   6,C   4,C   9)          118.1836         0.417068   
     69. A(C   3,C   4,C   9)          123.4022         0.420127   
     70. A(C   3,C   4,C   6)          118.2124         0.421422   
     71. A(C   3,O   5,C  15)          117.4744         0.416635   
     72. A(C   4,C   6,C   7)          119.1951         0.416543   
     73. A(C   2,C   6,C   7)          121.3870         0.421886   
     74. A(C   2,C   6,C   4)          119.3136         0.423723   
     75. A(C   6,C   7,H  29)          117.7811         0.347907   
     76. A(C   6,C   7,C   8)          121.1603         0.435273   
     77. A(C   8,C   7,H  29)          120.9023         0.364221   
     78. A(C  10,C   8,H  30)          117.9972         0.348329   
     79. A(C   7,C   8,H  30)          121.4257         0.364360   
     80. A(C   7,C   8,C  10)          120.5378         0.435663   
     81. A(C   4,C   9,C  10)          119.4505         0.417392   
     82. A(C  10,C   9,N  11)          118.6489         0.424984   
     83. A(C   4,C   9,N  11)          121.8803         0.423346   
     84. A(C   9,C  10,C  14)          118.3677         0.424906   
     85. A(C   8,C  10,C  14)          122.8274         0.423109   
     86. A(C   8,C  10,C   9)          118.7666         0.417236   
     87. A(C   9,N  11,P  34)          121.6841         0.437762   
     88. A(C   9,N  11,C  12)          120.8781         0.435862   
     89. A(C  12,N  11,P  34)          114.3686         0.442641   
     90. A(N  11,C  12,H  31)          115.5434         0.357830   
     91. A(N  11,C  12,C  13)          121.6067         0.441626   
     92. A(C  13,C  12,H  31)          122.8058         0.358527   
     93. A(C  12,C  13,H  32)          119.7968         0.359025   
     94. A(C  12,C  13,C  14)          118.6578         0.440484   
     95. A(C  14,C  13,H  32)          121.3700         0.357455   
     96. A(C  10,C  14,H  33)          119.3447         0.354103   
     97. A(C  10,C  14,C  13)          119.8053         0.434658   
     98. A(C  13,C  14,H  33)          120.8460         0.357004   
     99. A(O  16,C  15,N  17)          125.0289         0.481736   
    100. A(O   5,C  15,N  17)          112.7538         0.433070   
    101. A(O   5,C  15,O  16)          122.2119         0.464880   
    102. A(C  18,N  17,C  19)          115.0739         0.383868   
    103. A(C  15,N  17,C  19)          119.6202         0.414342   
    104. A(C  15,N  17,C  18)          125.1413         0.414826   
    105. A(N  17,C  18,H  25)          109.1379         0.332825   
    106. A(H  23,C  18,H  24)          109.6923         0.291961   
    107. A(H  23,C  18,H  25)          108.7056         0.290747   
    108. A(N  17,C  18,H  24)          110.4282         0.334293   
    109. A(N  17,C  18,H  23)          109.4316         0.333344   
    110. A(H  24,C  18,H  25)          109.4166         0.291530   
    111. A(H  21,C  19,H  22)          109.7494         0.291331   
    112. A(H  20,C  19,H  22)          109.1191         0.290838   
    113. A(N  17,C  19,H  22)          109.4830         0.332824   
    114. A(H  20,C  19,H  21)          109.2811         0.291254   
    115. A(N  17,C  19,H  21)          109.2678         0.333325   
    116. A(N  17,C  19,H  20)          109.9279         0.332730   
    117. A(N  11,P  34,O  36)           98.8315         0.507836   
    118. A(N  11,P  34,O  35)          117.3158         0.546028   
    119. A(O  36,P  34,O  37)          103.7106         0.573909   
    120. A(O  35,P  34,O  37)          113.5214         0.618126   
    121. A(N  11,P  34,O  37)           98.9094         0.500671   
    122. A(O  35,P  34,O  36)          121.2225         0.627335   
    123. A(P  34,O  36,C  38)          119.3967         0.472120   
    124. A(P  34,O  37,C  39)          120.6369         0.468595   
    125. A(H  41,C  38,H  42)          110.1558         0.290282   
    126. A(C  40,C  38,H  42)          111.1525         0.327146   
    127. A(O  36,C  38,H  42)          104.2656         0.333954   
    128. A(C  40,C  38,H  41)          110.2133         0.326681   
    129. A(O  36,C  38,H  41)          108.6084         0.333476   
    130. A(O  36,C  38,C  40)          112.2741         0.378251   
    131. A(C  46,C  39,H  48)          111.4322         0.326692   
    132. A(O  37,C  39,H  48)          104.7233         0.335783   
    133. A(C  46,C  39,H  47)          110.2930         0.326203   
    134. A(O  37,C  39,H  47)          108.8390         0.335276   
    135. A(O  37,C  39,C  46)          111.6704         0.380187   
    136. A(H  47,C  39,H  48)          109.7183         0.290031   
    137. A(H  44,C  40,H  45)          109.0714         0.291967   
    138. A(H  43,C  40,H  45)          108.9021         0.291524   
    139. A(C  38,C  40,H  45)          110.5757         0.327820   
    140. A(H  43,C  40,H  44)          108.8172         0.291672   
    141. A(C  38,C  40,H  44)          109.3211         0.327994   
    142. A(C  38,C  40,H  43)          110.1210         0.327472   
    143. A(H  50,C  46,H  51)          108.6137         0.291683   
    144. A(H  49,C  46,H  51)          108.9574         0.292014   
    145. A(C  39,C  46,H  51)          109.2827         0.327732   
    146. A(H  49,C  46,H  50)          109.4978         0.291486   
    147. A(C  39,C  46,H  50)          110.0040         0.327110   
    148. A(C  39,C  46,H  49)          110.4509         0.327500   
    149. D(C   2,C   1,C   0,C   3)     -5.6074         0.026262   
    150. D(H  28,C   1,C   0,H  27)     -3.0509         0.026262   
    151. D(C   2,C   1,C   0,H  27)    173.1541         0.026262   
    152. D(H  28,C   1,C   0,C   3)    178.1876         0.026262   
    153. D(C   6,C   2,C   1,H  28)   -179.3262         0.030513   
    154. D(H  26,C   2,C   1,C   0)   -173.9715         0.030513   
    155. D(C   6,C   2,C   1,C   0)      4.5169         0.030513   
    156. D(H  26,C   2,C   1,H  28)      2.1854         0.030513   
    157. D(C   4,C   3,C   0,H  27)    179.4023         0.029689   
    158. D(O   5,C   3,C   0,C   1)    174.3937         0.029689   
    159. D(O   5,C   3,C   0,H  27)     -4.3891         0.029689   
    160. D(C   4,C   3,C   0,C   1)     -1.8150         0.029689   
    161. D(C   6,C   4,C   3,O   5)   -166.0276         0.023342   
    162. D(C   9,C   4,C   3,C   0)   -175.2640         0.023342   
    163. D(C   6,C   4,C   3,C   0)     10.0003         0.023342   
    164. D(C   9,C   4,C   3,O   5)      8.7081         0.023342   
    165. D(C  15,O   5,C   3,C   4)     57.2030         0.023330   
    166. D(C  15,O   5,C   3,C   0)   -118.9424         0.023330   
    167. D(C   7,C   6,C   4,C   9)     -9.6400         0.021428   
    168. D(C   2,C   6,C   4,C   9)    174.0212         0.021428   
    169. D(C   2,C   6,C   4,C   3)    -10.9640         0.021428   
    170. D(C   7,C   6,C   4,C   3)    165.3748         0.021428   
    171. D(C   7,C   6,C   2,H  26)      6.1133         0.024886   
    172. D(C   4,C   6,C   2,H  26)   -177.6308         0.024886   
    173. D(C   4,C   6,C   2,C   1)      3.8576         0.024886   
    174. D(C   7,C   6,C   2,C   1)   -172.3983         0.024886   
    175. D(H  29,C   7,C   6,C   4)   -179.8965         0.020376   
    176. D(H  29,C   7,C   6,C   2)     -3.6362         0.020376   
    177. D(C   8,C   7,C   6,C   4)     -4.4024         0.020376   
    178. D(C   8,C   7,C   6,C   2)    171.8579         0.020376   
    179. D(C  10,C   8,C   7,C   6)      9.2750         0.036149   
    180. D(H  30,C   8,C   7,H  29)      2.3036         0.036149   
    181. D(H  30,C   8,C   7,C   6)   -173.0500         0.036149   
    182. D(C  10,C   8,C   7,H  29)   -175.3714         0.036149   
    183. D(N  11,C   9,C   4,C   6)   -159.5110         0.020676   
    184. D(N  11,C   9,C   4,C   3)     25.7519         0.020676   
    185. D(C  10,C   9,C   4,C   6)     18.8257         0.020676   
    186. D(C  10,C   9,C   4,C   3)   -155.9114         0.020676   
    187. D(C  14,C  10,C   9,N  11)    -13.6551         0.021623   
    188. D(C  14,C  10,C   9,C   4)    167.9543         0.021623   
    189. D(C   8,C  10,C   9,N  11)    164.1590         0.021623   
    190. D(C   8,C  10,C   9,C   4)    -14.2316         0.021623   
    191. D(C  14,C  10,C   8,H  30)      0.0410         0.020587   
    192. D(C  14,C  10,C   8,C   7)    177.7942         0.020587   
    193. D(C   9,C  10,C   8,H  30)   -177.6700         0.020587   
    194. D(C   9,C  10,C   8,C   7)      0.0832         0.020587   
    195. D(P  34,N  11,C   9,C  10)   -144.1212         0.032310   
    196. D(P  34,N  11,C   9,C   4)     34.2284         0.032310   
    197. D(C  12,N  11,C   9,C  10)     14.9509         0.032310   
    198. D(C  12,N  11,C   9,C   4)   -166.6996         0.032310   
    199. D(H  31,C  12,N  11,P  34)    -21.6384         0.036924   
    200. D(H  31,C  12,N  11,C   9)    177.8542         0.036924   
    201. D(C  13,C  12,N  11,P  34)    156.0105         0.036924   
    202. D(C  13,C  12,N  11,C   9)     -4.4969         0.036924   
    203. D(H  32,C  13,C  12,H  31)     -5.0375         0.029819   
    204. D(H  32,C  13,C  12,N  11)    177.4864         0.029819   
    205. D(C  14,C  13,C  12,H  31)    170.2153         0.029819   
    206. D(C  14,C  13,C  12,N  11)     -7.2607         0.029819   
    207. D(C  10,C  14,C  13,C  12)      8.0581         0.028221   
    208. D(H  33,C  14,C  10,C   9)   -178.4924         0.025483   
    209. D(H  33,C  14,C  10,C   8)      3.7879         0.025483   
    210. D(C  13,C  14,C  10,C   9)      2.2207         0.025483   
    211. D(C  13,C  14,C  10,C   8)   -175.4990         0.025483   
    212. D(H  33,C  14,C  13,H  32)      3.9570         0.028221   
    213. D(H  33,C  14,C  13,C  12)   -171.2180         0.028221   
    214. D(C  10,C  14,C  13,H  32)   -176.7669         0.028221   
    215. D(N  17,C  15,O   5,C   3)    157.9199         0.024461   
    216. D(O  16,C  15,O   5,C   3)    -22.8807         0.024461   
    217. D(C  19,N  17,C  15,O  16)     -2.9475         0.041058   
    218. D(C  19,N  17,C  15,O   5)    176.2253         0.041058   
    219. D(C  18,N  17,C  15,O  16)    172.1516         0.041058   
    220. D(C  18,N  17,C  15,O   5)     -8.6756         0.041058   
    221. D(H  25,C  18,N  17,C  15)   -115.4778         0.017735   
    222. D(H  24,C  18,N  17,C  19)   -179.8664         0.017735   
    223. D(H  24,C  18,N  17,C  15)      4.8368         0.017735   
    224. D(H  23,C  18,N  17,C  19)    -59.0229         0.017735   
    225. D(H  23,C  18,N  17,C  15)    125.6804         0.017735   
    226. D(H  22,C  19,N  17,C  15)   -122.0491         0.017500   
    227. D(H  21,C  19,N  17,C  18)   -177.4023         0.017500   
    228. D(H  21,C  19,N  17,C  15)     -1.8259         0.017500   
    229. D(H  20,C  19,N  17,C  18)    -57.4811         0.017500   
    230. D(H  20,C  19,N  17,C  15)    118.0953         0.017500   
    231. D(O  37,P  34,N  11,C   9)    117.1983         0.005042   
    232. D(O  36,P  34,N  11,C  12)     62.3596         0.005042   
    233. D(O  36,P  34,N  11,C   9)   -137.3071         0.005042   
    234. D(O  35,P  34,N  11,C  12)   -165.5217         0.005042   
    235. D(O  35,P  34,N  11,C   9)     -5.1885         0.005042   
    236. D(C  38,O  36,P  34,O  37)    -89.4108         0.016544   
    237. D(C  38,O  36,P  34,O  35)     39.5110         0.016544   
    238. D(C  38,O  36,P  34,N  11)    169.0970         0.016544   
    239. D(C  39,O  37,P  34,O  36)    158.2659         0.014263   
    240. D(C  39,O  37,P  34,O  35)     24.7854         0.014263   
    241. D(C  39,O  37,P  34,N  11)   -100.3018         0.014263   
    242. D(H  42,C  38,O  36,P  34)   -176.9239         0.016925   
    243. D(H  41,C  38,O  36,P  34)    -59.4879         0.016925   
    244. D(C  40,C  38,O  36,P  34)     62.6451         0.016925   
    245. D(H  48,C  39,O  37,P  34)   -163.1067         0.018187   
    246. D(H  47,C  39,O  37,P  34)    -45.8323         0.018187   
    247. D(C  46,C  39,O  37,P  34)     76.1659         0.018187   
    248. D(H  44,C  40,C  38,H  42)     57.4617         0.012362   
    249. D(H  44,C  40,C  38,H  41)    -64.9620         0.012362   
    250. D(H  44,C  40,C  38,O  36)    173.8215         0.012362   
    251. D(H  43,C  40,C  38,H  42)    176.9645         0.012362   
    252. D(H  43,C  40,C  38,H  41)     54.5408         0.012362   
    253. D(H  43,C  40,C  38,O  36)    -66.6756         0.012362   
    254. D(H  50,C  46,C  39,H  48)    176.3096         0.012223   
    255. D(H  50,C  46,C  39,H  47)     54.1961         0.012223   
    256. D(H  50,C  46,C  39,O  37)    -66.9613         0.012223   
    257. D(H  49,C  46,C  39,H  48)    -62.7030         0.012223   
    258. D(H  49,C  46,C  39,H  47)    175.1835         0.012223   
    259. D(H  49,C  46,C  39,O  37)     54.0262         0.012223   
    -----------------------------------------------------------------

Number of atoms                         .... 52
Number of degrees of freedom            .... 259


         *************************************************************
         *                GEOMETRY OPTIMIZATION CYCLE   1            *
         *************************************************************
---------------------------------
CARTESIAN COORDINATES (ANGSTROEM)
---------------------------------
  C     -4.642379    0.900744    0.699173
  C     -5.281566    0.130760    1.669261
  C     -4.543274   -0.585647    2.580954
  C     -3.271696    1.042066    0.717319
  C     -2.504910    0.442877    1.736237
  O     -2.686789    1.720500   -0.340823
  C     -3.147041   -0.477298    2.606701
  C     -2.350907   -1.326665    3.431534
  C     -1.001156   -1.332042    3.334404
  C     -1.098696    0.628205    1.871624
  C     -0.327711   -0.352317    2.548050
  N     -0.472937    1.736473    1.399730
  C      0.862960    1.780511    1.295451
  C      1.656552    0.747865    1.744216
  C      1.064886   -0.285722    2.450284
  C     -1.781580    1.027587   -1.119050
  O     -1.184291    0.046205   -0.705044
  N     -1.634113    1.555428   -2.328159
  C     -2.450167    2.614070   -2.879228
  C     -0.658922    0.994974   -3.239428
  H     -1.158898    0.612686   -4.129647
  H     -0.132704    0.181476   -2.745932
  H      0.050747    1.768177   -3.532907
  H     -1.809582    3.429497   -3.211860
  H     -3.149607    2.979019   -2.135330
  H     -3.002356    2.229710   -3.738789
  H     -5.027873   -1.257780    3.270919
  H     -5.206810    1.377371   -0.086045
  H     -6.356936    0.055453    1.656764
  H     -2.862070   -2.017861    4.082561
  H     -0.401814   -2.047383    3.873522
  H      1.267334    2.689191    0.876437
  H      2.724027    0.795625    1.609247
  H      1.665799   -1.037570    2.938128
  P     -1.254530    3.317772    1.412016
  O     -2.650313    3.372961    1.843791
  O     -0.824850    3.809596   -0.012444
  O     -0.258700    4.076706    2.388442
  C     -1.432706    4.993797   -0.565213
  C     -0.593801    4.269182    3.766978
  C     -1.135282    6.230058    0.258726
  H     -2.511839    4.833967   -0.630218
  H     -1.003922    5.074442   -1.564617
  H     -1.615487    6.155260    1.233088
  H     -1.520545    7.105881   -0.255435
  H     -0.063834    6.344993    0.402062
  C     -0.416702    2.994485    4.569684
  H     -1.627936    4.618757    3.833550
  H      0.082778    5.053582    4.109938
  H      0.586996    2.598507    4.437147
  H     -1.145873    2.250258    4.252684
  H     -0.575283    3.208670    5.622399

----------------------------
CARTESIAN COORDINATES (A.U.)
----------------------------
  NO LB      ZA    FRAG     MASS         X           Y           Z
   0 C     6.0000    0    12.011   -8.772825    1.702159    1.321245
   1 C     6.0000    0    12.011   -9.980713    0.247100    3.154447
   2 C     6.0000    0    12.011   -8.585544   -1.106713    4.877297
   3 C     6.0000    0    12.011   -6.182610    1.969219    1.355536
   4 C     6.0000    0    12.011   -4.733593    0.836915    3.281013
   5 O     8.0000    0    15.999   -5.077296    3.251275   -0.644063
   6 C     6.0000    0    12.011   -5.947046   -0.901963    4.925951
   7 C     6.0000    0    12.011   -4.442570   -2.507033    6.484659
   8 C     6.0000    0    12.011   -1.891910   -2.517194    6.301110
   9 C     6.0000    0    12.011   -2.076234    1.187136    3.536856
  10 C     6.0000    0    12.011   -0.619284   -0.665783    4.815117
  11 N     7.0000    0    14.007   -0.893721    3.281459    2.645106
  12 C     6.0000    0    12.011    1.630758    3.364678    2.448048
  13 C     6.0000    0    12.011    3.130430    1.413260    3.296091
  14 C     6.0000    0    12.011    2.012344   -0.539936    4.630367
  15 C     6.0000    0    12.011   -3.366698    1.941858   -2.114699
  16 O     8.0000    0    15.999   -2.237986    0.087315   -1.332339
  17 N     7.0000    0    14.007   -3.088026    2.939334   -4.399583
  18 C     6.0000    0    12.011   -4.630144    4.939877   -5.440952
  19 C     6.0000    0    12.011   -1.245183    1.880227   -6.121632
  20 H     1.0000    0     1.008   -2.190000    1.157808   -7.803901
  21 H     1.0000    0     1.008   -0.250775    0.342940   -5.189060
  22 H     1.0000    0     1.008    0.095898    3.341371   -6.676227
  23 H     1.0000    0     1.008   -3.419615    6.480811   -6.069537
  24 H     1.0000    0     1.008   -5.951894    5.629529   -4.035188
  25 H     1.0000    0     1.008   -5.673630    4.213542   -7.065287
  26 H     1.0000    0     1.008   -9.501303   -2.376860    6.181142
  27 H     1.0000    0     1.008   -9.839445    2.602854   -0.162602
  28 H     1.0000    0     1.008  -12.012868    0.104791    3.130830
  29 H     1.0000    0     1.008   -5.408529   -3.813204    7.714921
  30 H     1.0000    0     1.008   -0.759319   -3.868993    7.319896
  31 H     1.0000    0     1.008    2.394915    5.081835    1.656226
  32 H     1.0000    0     1.008    5.147666    1.503513    3.041035
  33 H     1.0000    0     1.008    3.147903   -1.960723    5.552257
  34 P    15.0000    0    30.974   -2.370718    6.269680    2.668324
  35 O     8.0000    0    15.999   -5.008366    6.373973    3.484261
  36 O     8.0000    0    15.999   -1.558741    7.199093   -0.023515
  37 O     8.0000    0    15.999   -0.488872    7.703858    4.513501
  38 C     6.0000    0    12.011   -2.707422    9.436908   -1.068099
  39 C     6.0000    0    12.011   -1.122121    8.067585    7.118556
  40 C     6.0000    0    12.011   -2.145372   11.773103    0.488921
  41 H     1.0000    0     1.008   -4.746688    9.134874   -1.190939
  42 H     1.0000    0     1.008   -1.897138    9.589305   -2.956697
  43 H     1.0000    0     1.008   -3.052827   11.631756    2.330198
  44 H     1.0000    0     1.008   -2.873413   13.428168   -0.482702
  45 H     1.0000    0     1.008   -0.120630   11.990300    0.759787
  46 C     6.0000    0    12.011   -0.787454    5.658757    8.635450
  47 H     1.0000    0     1.008   -3.076353    8.728186    7.244360
  48 H     1.0000    0     1.008    0.156427    9.549886    7.766657
  49 H     1.0000    0     1.008    1.109262    4.910466    8.384992
  50 H     1.0000    0     1.008   -2.165386    4.252372    8.036407
  51 H     1.0000    0     1.008   -1.087128    6.063508   10.624795

--------------------------------
INTERNAL COORDINATES (ANGSTROEM)
--------------------------------
 C      0   0   0     0.000000000000     0.00000000     0.00000000
 C      1   0   0     1.393738510917     0.00000000     0.00000000
 C      2   1   0     1.374590552472   120.21533285     0.00000000
 C      1   2   3     1.378068187785   120.24146465   354.39261007
 C      4   1   2     1.408965737026   120.47842711   358.18503934
 O      4   1   2     1.386381947449   117.37209468   174.39367153
 C      3   2   1     1.400667290722   120.48247620     4.51692252
 C      7   3   2     1.426745399845   121.38703700   187.60165823
 C      8   7   3     1.353252065199   121.16029082   171.85785591
 C      5   4   1     1.424820340608   123.40219944   184.73604901
 C     10   5   4     1.418941646468   119.45047581   204.08855488
 N     10   5   4     1.357393407327   121.88029817    25.75189722
 C     12  10   5     1.340683896633   120.87809551   193.30040051
 C     13  12  10     1.377510665354   121.60673284   355.50307329
 C     14  13  12     1.384522620050   118.65778705   352.73925465
 C      6   4   1     1.380279091669   117.47441841   241.05756386
 O     16   6   4     1.221173608217   122.21194907   337.11933068
 N     16   6   4     1.327519231482   112.75380245   157.91992683
 C     18  16   6     1.445801676969   125.14130415   351.32439356
 C     18  16   6     1.447590369630   119.62024350   176.22528889
 H     20  18  16     1.090233226199   109.92785857   118.09525427
 H     20  18  16     1.087300385887   109.26782718   358.17412008
 H     20  18  16     1.089772743357   109.48303724   237.95093833
 H     19  18  16     1.088996824760   109.43158656   125.68036776
 H     19  18  16     1.084337496562   110.42815110     4.83684128
 H     19  18  16     1.091554005523   109.13794566   244.52219570
 H      3   2   1     1.078262421626   120.52348414   186.02847016
 H      1   2   3     1.078110936415   120.73570202   173.15411426
 H      2   1   3     1.078075806465   119.20818903   183.79494023
 H      8   7   3     1.078367126639   117.78105658   356.36377433
 H      9   8   7     1.077762481119   121.42573284   186.95002526
 H     13  12  10     1.079254957328   115.54337293   177.85418796
 H     14  13  12     1.077033610510   119.79679716   177.48640641
 H     15  14  13     1.079055919883   120.84604607   188.78202126
 P     12  10   5     1.763956628001   121.68409691    34.22838498
 O     35  12  10     1.462083027515   117.31576557   354.81150607
 O     35  12  10     1.567036233474    98.83153714   222.69288149
 O     35  12  10     1.587786006091    98.90941058   117.19825288
 C     37  35  12     1.441309836716   119.39668988   169.09699346
 C     38  35  12     1.431677710029   120.63687748   259.69815682
 C     39  37  35     1.515149479430   112.27406804    62.64510655
 H     39  37  35     1.092839714259   108.60842724   300.51212485
 H     39  37  35     1.090489106100   104.26557239   183.07610735
 H     41  39  37     1.088839832255   110.12096935   293.32439909
 H     41  39  37     1.086211032396   109.32106014   173.82154265
 H     41  39  37     1.087085946510   110.57574780    53.72523197
 C     40  38  35     1.516757330770   111.67037087    76.16586642
 H     40  38  35     1.093649908641   108.83896908   314.16772128
 H     40  38  35     1.091175058072   104.72334240   196.89327935
 H     47  40  38     1.087095220860   110.45086330    54.02619509
 H     47  40  38     1.089060071294   110.00400109   293.03872837
 H     47  40  38     1.085925053482   109.28268063   173.87992733

---------------------------
INTERNAL COORDINATES (A.U.)
---------------------------
 C      0   0   0     0.000000000000     0.00000000     0.00000000
 C      1   0   0     2.633784087933     0.00000000     0.00000000
 C      2   1   0     2.597599690448   120.21533285     0.00000000
 C      1   2   3     2.604171468783   120.24146465   354.39261007
 C      4   1   2     2.662559375057   120.47842711   358.18503934
 O      4   1   2     2.619882197691   117.37209468   174.39367153
 C      3   2   1     2.646877584206   120.48247620     4.51692252
 C      7   3   2     2.696158068540   121.38703700   187.60165823
 C      8   7   3     2.557275793389   121.16029082   171.85785591
 C      5   4   1     2.692520233790   123.40219944   184.73604901
 C     10   5   4     2.681411111840   119.45047581   204.08855488
 N     10   5   4     2.565101795838   121.88029817    25.75189722
 C     12  10   5     2.533525396794   120.87809551   193.30040051
 C     13  12  10     2.603117904074   121.60673284   355.50307329
 C     14  13  12     2.616368578114   118.65778705   352.73925465
 C      6   4   1     2.608349471632   117.47441841   241.05756386
 O     16   6   4     2.307683681502   122.21194907   337.11933068
 N     16   6   4     2.508647785015   112.75380245   157.91992683
 C     18  16   6     2.732169213435   125.14130415   351.32439356
 C     18  16   6     2.735549352702   119.62024350   176.22528889
 H     20  18  16     2.060242219618   109.92785857   118.09525427
 H     20  18  16     2.054699954633   109.26782718   358.17412008
 H     20  18  16     2.059372033157   109.48303724   237.95093833
 H     19  18  16     2.057905759506   109.43158656   125.68036776
 H     19  18  16     2.049100905244   110.42815110     4.83684128
 H     19  18  16     2.062738130823   109.13794566   244.52219570
 H      3   2   1     2.037620677371   120.52348414   186.02847016
 H      1   2   3     2.037334411811   120.73570202   173.15411426
 H      2   1   3     2.037268025825   119.20818903   183.79494023
 H      8   7   3     2.037818541170   117.78105658   356.36377433
 H      9   8   7     2.036675926731   121.42573284   186.95002526
 H     13  12  10     2.039496298027   115.54337293   177.85418796
 H     14  13  12     2.035298560892   119.79679716   177.48640641
 H     15  14  13     2.039120171765   120.84604607   188.78202126
 P     12  10   5     3.333394939037   121.68409691    34.22838498
 O     35  12  10     2.762936507057   117.31576557   354.81150607
 O     35  12  10     2.961269323198    98.83153714   222.69288149
 O     35  12  10     3.000480710785    98.90941058   117.19825288
 C     37  35  12     2.723680865520   119.39668988   169.09699346
 C     38  35  12     2.705478783994   120.63687748   259.69815682
 C     39  37  35     2.863217568077   112.27406804    62.64510655
 H     39  37  35     2.065167768221   108.60842724   300.51212485
 H     39  37  35     2.060725762553   104.26557239   183.07610735
 H     41  39  37     2.057609086668   110.12096935   293.32439909
 H     41  39  37     2.052641374872   109.32106014   173.82154265
 H     41  39  37     2.054294722938   110.57574780    53.72523197
 C     40  38  35     2.866255966773   111.67037087    76.16586642
 H     40  38  35     2.066698813719   108.83896908   314.16772128
 H     40  38  35     2.062022023922   104.72334240   196.89327935
 H     47  40  38     2.054312248919   110.45086330    54.02619509
 H     47  40  38     2.058025278134   110.00400109   293.03872837
 H     47  40  38     2.052100953045   109.28268063   173.87992733

---------------------
BASIS SET INFORMATION
---------------------
There are 5 groups of distinct atoms

 Group   1 Type C   : 11s6p2d contracted to 5s3p2d pattern {62111/411/11}
 Group   2 Type O   : 11s6p2d contracted to 5s3p2d pattern {62111/411/11}
 Group   3 Type N   : 11s6p2d contracted to 5s3p2d pattern {62111/411/11}
 Group   4 Type H   : 5s1p contracted to 3s1p pattern {311/1}
 Group   5 Type P   : 14s9p3d contracted to 5s5p2d pattern {73211/51111/21}

Atom   0C    basis set group =>   1
Atom   1C    basis set group =>   1
Atom   2C    basis set group =>   1
Atom   3C    basis set group =>   1
Atom   4C    basis set group =>   1
Atom   5O    basis set group =>   2
Atom   6C    basis set group =>   1
Atom   7C    basis set group =>   1
Atom   8C    basis set group =>   1
Atom   9C    basis set group =>   1
Atom  10C    basis set group =>   1
Atom  11N    basis set group =>   3
Atom  12C    basis set group =>   1
Atom  13C    basis set group =>   1
Atom  14C    basis set group =>   1
Atom  15C    basis set group =>   1
Atom  16O    basis set group =>   2
Atom  17N    basis set group =>   3
Atom  18C    basis set group =>   1
Atom  19C    basis set group =>   1
Atom  20H    basis set group =>   4
Atom  21H    basis set group =>   4
Atom  22H    basis set group =>   4
Atom  23H    basis set group =>   4
Atom  24H    basis set group =>   4
Atom  25H    basis set group =>   4
Atom  26H    basis set group =>   4
Atom  27H    basis set group =>   4
Atom  28H    basis set group =>   4
Atom  29H    basis set group =>   4
Atom  30H    basis set group =>   4
Atom  31H    basis set group =>   4
Atom  32H    basis set group =>   4
Atom  33H    basis set group =>   4
Atom  34P    basis set group =>   5
Atom  35O    basis set group =>   2
Atom  36O    basis set group =>   2
Atom  37O    basis set group =>   2
Atom  38C    basis set group =>   1
Atom  39C    basis set group =>   1
Atom  40C    basis set group =>   1
Atom  41H    basis set group =>   4
Atom  42H    basis set group =>   4
Atom  43H    basis set group =>   4
Atom  44H    basis set group =>   4
Atom  45H    basis set group =>   4
Atom  46C    basis set group =>   1
Atom  47H    basis set group =>   4
Atom  48H    basis set group =>   4
Atom  49H    basis set group =>   4
Atom  50H    basis set group =>   4
Atom  51H    basis set group =>   4
---------------------------------
AUXILIARY/J BASIS SET INFORMATION
---------------------------------
There are 5 groups of distinct atoms

 Group   1 Type C   : 12s5p4d2f1g contracted to 6s4p3d1f1g pattern {711111/2111/211/2/1}
 Group   2 Type O   : 12s5p4d2f1g contracted to 6s4p3d1f1g pattern {711111/2111/211/2/1}
 Group   3 Type N   : 12s5p4d2f1g contracted to 6s4p3d1f1g pattern {711111/2111/211/2/1}
 Group   4 Type H   : 5s2p1d contracted to 3s1p1d pattern {311/2/1}
 Group   5 Type P   : 14s5p5d2f1g contracted to 8s4p3d1f1g pattern {71111111/2111/311/2/1}

Atom   0C    basis set group =>   1
Atom   1C    basis set group =>   1
Atom   2C    basis set group =>   1
Atom   3C    basis set group =>   1
Atom   4C    basis set group =>   1
Atom   5O    basis set group =>   2
Atom   6C    basis set group =>   1
Atom   7C    basis set group =>   1
Atom   8C    basis set group =>   1
Atom   9C    basis set group =>   1
Atom  10C    basis set group =>   1
Atom  11N    basis set group =>   3
Atom  12C    basis set group =>   1
Atom  13C    basis set group =>   1
Atom  14C    basis set group =>   1
Atom  15C    basis set group =>   1
Atom  16O    basis set group =>   2
Atom  17N    basis set group =>   3
Atom  18C    basis set group =>   1
Atom  19C    basis set group =>   1
Atom  20H    basis set group =>   4
Atom  21H    basis set group =>   4
Atom  22H    basis set group =>   4
Atom  23H    basis set group =>   4
Atom  24H    basis set group =>   4
Atom  25H    basis set group =>   4
Atom  26H    basis set group =>   4
Atom  27H    basis set group =>   4
Atom  28H    basis set group =>   4
Atom  29H    basis set group =>   4
Atom  30H    basis set group =>   4
Atom  31H    basis set group =>   4
Atom  32H    basis set group =>   4
Atom  33H    basis set group =>   4
Atom  34P    basis set group =>   5
Atom  35O    basis set group =>   2
Atom  36O    basis set group =>   2
Atom  37O    basis set group =>   2
Atom  38C    basis set group =>   1
Atom  39C    basis set group =>   1
Atom  40C    basis set group =>   1
Atom  41H    basis set group =>   4
Atom  42H    basis set group =>   4
Atom  43H    basis set group =>   4
Atom  44H    basis set group =>   4
Atom  45H    basis set group =>   4
Atom  46C    basis set group =>   1
Atom  47H    basis set group =>   4
Atom  48H    basis set group =>   4
Atom  49H    basis set group =>   4
Atom  50H    basis set group =>   4
Atom  51H    basis set group =>   4
---------------------------------
AUXILIARY/C BASIS SET INFORMATION
---------------------------------
There are 5 groups of distinct atoms

 Group   1 Type C   : 8s6p5d3f1g contracted to 8s6p4d3f1g pattern {11111111/111111/2111/111/1}
 Group   2 Type O   : 8s6p5d3f1g contracted to 8s6p4d3f1g pattern {11111111/111111/2111/111/1}
 Group   3 Type N   : 8s6p5d3f1g contracted to 8s6p4d3f1g pattern {11111111/111111/2111/111/1}
 Group   4 Type H   : 4s3p2d contracted to 4s2p1d pattern {1111/21/2}
 Group   5 Type P   : 10s7p7d5f2g contracted to 9s7p6d5f2g pattern {211111111/1111111/211111/11111/11}

Atom   0C    basis set group =>   1
Atom   1C    basis set group =>   1
Atom   2C    basis set group =>   1
Atom   3C    basis set group =>   1
Atom   4C    basis set group =>   1
Atom   5O    basis set group =>   2
Atom   6C    basis set group =>   1
Atom   7C    basis set group =>   1
Atom   8C    basis set group =>   1
Atom   9C    basis set group =>   1
Atom  10C    basis set group =>   1
Atom  11N    basis set group =>   3
Atom  12C    basis set group =>   1
Atom  13C    basis set group =>   1
Atom  14C    basis set group =>   1
Atom  15C    basis set group =>   1
Atom  16O    basis set group =>   2
Atom  17N    basis set group =>   3
Atom  18C    basis set group =>   1
Atom  19C    basis set group =>   1
Atom  20H    basis set group =>   4
Atom  21H    basis set group =>   4
Atom  22H    basis set group =>   4
Atom  23H    basis set group =>   4
Atom  24H    basis set group =>   4
Atom  25H    basis set group =>   4
Atom  26H    basis set group =>   4
Atom  27H    basis set group =>   4
Atom  28H    basis set group =>   4
Atom  29H    basis set group =>   4
Atom  30H    basis set group =>   4
Atom  31H    basis set group =>   4
Atom  32H    basis set group =>   4
Atom  33H    basis set group =>   4
Atom  34P    basis set group =>   5
Atom  35O    basis set group =>   2
Atom  36O    basis set group =>   2
Atom  37O    basis set group =>   2
Atom  38C    basis set group =>   1
Atom  39C    basis set group =>   1
Atom  40C    basis set group =>   1
Atom  41H    basis set group =>   4
Atom  42H    basis set group =>   4
Atom  43H    basis set group =>   4
Atom  44H    basis set group =>   4
Atom  45H    basis set group =>   4
Atom  46C    basis set group =>   1
Atom  47H    basis set group =>   4
Atom  48H    basis set group =>   4
Atom  49H    basis set group =>   4
Atom  50H    basis set group =>   4
Atom  51H    basis set group =>   4


           ************************************************************
           *        Program running with 200 parallel MPI-processes   *
           *              working on a common directory               *
           ************************************************************
------------------------------------------------------------------------------
                             ORCA STARTUP CALCULATIONS
                           -- RI-GTO INTEGRALS CHOSEN --
------------------------------------------------------------------------------
------------------------------------------------------------------------------
                   ___                                                        
                  /   \      - P O W E R E D   B Y -                         
                 /     \                                                     
                 |  |  |   _    _      __       _____    __    __             
                 |  |  |  | |  | |    /  \     |  _  \  |  |  /  |          
                  \  \/   | |  | |   /    \    | | | |  |  | /  /          
                 / \  \   | |__| |  /  /\  \   | |_| |  |  |/  /          
                |  |  |   |  __  | /  /__\  \  |    /   |      \           
                |  |  |   | |  | | |   __   |  |    \   |  |\   \          
                \     /   | |  | | |  |  |  |  | |\  \  |  | \   \       
                 \___/    |_|  |_| |__|  |__|  |_| \__\ |__|  \__/        
                                                                              
                      - O R C A' S   B I G   F R I E N D -                    
                                      &                                       
                       - I N T E G R A L  F E E D E R -                       
                                                                              
 v1 FN, 2020, v2 2021, v3 2022-2024                                           
------------------------------------------------------------------------------


----------------------
SHARK INTEGRAL PACKAGE
----------------------

Number of atoms                             ...     52
Number of basis functions                   ...    822
Number of shells                            ...    378
Maximum angular momentum                    ...      2
Integral batch strategy                     ... SHARK/LIBINT Hybrid
RI-J (if used) integral strategy            ... SPLIT-RIJ (Revised 2003 algorithm where possible)
Printlevel                                  ...      1
Contraction scheme used                     ... SEGMENTED contraction
Prescreening option                         ... SCHWARTZ
   Thresh                                   ... 2.500e-11
   Tcut                                     ... 2.500e-12
   Tpresel                                  ... 2.500e-12 
Coulomb Range Separation                    ... NOT USED
Exchange Range Separation                   ... Long Range
   Mu parameter                             ... 3.300e-01
   Scaling (regular/separated)              ... 1.900e-01 4.600e-01
Multipole approximations                    ... NOT USED
Finite Nucleus Model                        ... NOT USED
CABS basis                                  ... NOT available
Auxiliary Coulomb fitting basis             ... AVAILABLE
   # of basis functions in Aux-J            ...   1638
   # of shells in Aux-J                     ...    542
   Maximum angular momentum in Aux-J        ...      4
Auxiliary J/K fitting basis                 ... NOT available
Auxiliary Correlation fitting basis         ... AVAILABLE
   # of basis functions in Aux-C            ...   2525
   # of shells in Aux-C                     ...    791
   Maximum angular momentum in Aux-C        ...      4
Auxiliary 'external' fitting basis          ... NOT available

Checking pre-screening integrals            ... done (  2.1 sec) Dimension = 378
Check shell pair data                       ... done (  0.8 sec)
Shell pair information
Shell pair cut-off parameter TPreSel        ...   2.5e-12
Total number of shell pairs                 ...     71631
Shell pairs after pre-screening             ...     51523
Total number of primitive shell pairs       ...    234288
Primitive shell pairs kept                  ...    107243
          la=0 lb=0:  15384 shell pairs
          la=1 lb=0:  17157 shell pairs
          la=1 lb=1:   4801 shell pairs
          la=2 lb=0:   8284 shell pairs
          la=2 lb=1:   4696 shell pairs
          la=2 lb=2:   1201 shell pairs

Calculating one electron integrals          ... done (  0.1 sec)
Calculating RI/J V-Matrix + Cholesky decomp.... done (  2.9 sec)
Calculating RI/C V-Matrix + Cholesky decomp.... done (  3.4 sec)
Calculating Nuclear repulsion               ... done (  0.0 sec) ENN=   3234.098372712797 Eh

Diagonalization of the overlap matrix:
Smallest eigenvalue                        ... 4.133e-06
Time for diagonalization                   ...    0.194 sec
Threshold for overlap eigenvalues          ... 1.000e-07
Number of eigenvalues below threshold      ... 0
Time for construction of square roots      ...    0.411 sec
Total time needed                          ...    6.151 sec

-------------------
DFT GRID GENERATION
-------------------

General Integration Accuracy     IntAcc      ... 4.388
Radial Grid Type                 RadialGrid  ... OptM3 with GC (2021)
Angular Grid (max. ang.)         AngularGrid ... 4 (Lebedev-302)
Angular grid pruning method      GridPruning ... 4 (adaptive)
Weight generation scheme         WeightScheme... mBecke (2022)
Basis function cutoff            BFCut       ... 1.0000e-11
Integration weight cutoff        WCut        ... 1.0000e-14
Partially contracted basis set               ... off
Rotationally invariant grid construction     ... off
Angular grids for H and He will be reduced by one unit

Total number of grid points                  ...   243759
Total number of batches                      ...     3830
Average number of points per batch           ...       63
Average number of grid points per atom       ...     4688

--------------------
COSX GRID GENERATION
--------------------

GRIDX 1
-------
General Integration Accuracy     IntAcc      ... 3.816
Radial Grid Type                 RadialGrid  ... OptM3 with GC (2021)
Angular Grid (max. ang.)         AngularGrid ... 1 (Lebedev-50)
Angular grid pruning method      GridPruning ... 4 (adaptive)
Weight generation scheme         WeightScheme... mBecke (2022)
Basis function cutoff            BFCut       ... 1.0000e-11
Integration weight cutoff        WCut        ... 1.0000e-14
Partially contracted basis set               ... on
Rotationally invariant grid construction     ... off
Angular grids for H and He will be reduced by one unit

Total number of grid points                  ...    31876
Total number of batches                      ...      278
Average number of points per batch           ...      114
Average number of grid points per atom       ...      613
UseSFitting                                  ... on

GRIDX 2
-------
General Integration Accuracy     IntAcc      ... 4.020
Radial Grid Type                 RadialGrid  ... OptM3 with GC (2021)
Angular Grid (max. ang.)         AngularGrid ... 2 (Lebedev-110)
Angular grid pruning method      GridPruning ... 4 (adaptive)
Weight generation scheme         WeightScheme... mBecke (2022)
Basis function cutoff            BFCut       ... 1.0000e-11
Integration weight cutoff        WCut        ... 1.0000e-14
Partially contracted basis set               ... on
Rotationally invariant grid construction     ... off
Angular grids for H and He will be reduced by one unit

Total number of grid points                  ...    66127
Total number of batches                      ...      545
Average number of points per batch           ...      121
Average number of grid points per atom       ...     1272
UseSFitting                                  ... on

GRIDX 3
-------
General Integration Accuracy     IntAcc      ... 4.338
Radial Grid Type                 RadialGrid  ... OptM3 with GC (2021)
Angular Grid (max. ang.)         AngularGrid ... 3 (Lebedev-194)
Angular grid pruning method      GridPruning ... 4 (adaptive)
Weight generation scheme         WeightScheme... mBecke (2022)
Basis function cutoff            BFCut       ... 1.0000e-11
Integration weight cutoff        WCut        ... 1.0000e-14
Partially contracted basis set               ... on
Rotationally invariant grid construction     ... off
Angular grids for H and He will be reduced by one unit

Total number of grid points                  ...   144420
Total number of batches                      ...     1158
Average number of points per batch           ...      124
Average number of grid points per atom       ...     2777
UseSFitting                                  ... on
Initializing property integral containers    ... done (  1.2 sec)

SHARK setup successfully completed in 169.7 seconds

Maximum memory used throughout the entire STARTUP-calculation: 107.3 MB


           ************************************************************
           *        Program running with 200 parallel MPI-processes   *
           *              working on a common directory               *
           ************************************************************
-------------------------------------------------------------------------------
                                 ORCA GUESS
                   Start orbitals & Density for SCF / CASSCF
-------------------------------------------------------------------------------

------------
SCF SETTINGS
------------
Hamiltonian:
 Density Functional     Method          .... DFT(GTOs)
 Exchange Functional    Exchange        .... WB88
 Correlation Functional Correlation     .... LYP
 LDA part of GGA corr.  LDAOpt          .... VWN-5
 Gradients option       PostSCFGGA      .... off
 Hybrid DFT is turned on
   Fraction HF Exchange ScalHFX         ....  0.190000
   Scaling of DF-GGA-X  ScalDFX         ....  0.350000
   Scaling of DF-GGA-C  ScalDFC         ....  0.810000
   Scaling of DF-LDA-C  ScalLDAC        ....  1.000000
   Perturbative correction              ....  0.000000
 Long-range corrected/Screened/Range-Separated Hybrid DFT is turned on
   Amount of maximum screened exact exchange              ....  0.460000
   Range separation parameter mu (erf(mu*r12)/r12)        ....  0.330000
 RI-approximation to the Coulomb term is turned on
   Number of AuxJ basis functions       .... 1638
   RIJ-COSX (HFX calculated with COS-X)).... on


General Settings:
 Integral files         IntName         .... hbq-dcp-es
 Hartree-Fock type      HFTyp           .... RHF
 Total Charge           Charge          ....    1
 Multiplicity           Mult            ....    1
 Number of Electrons    NEL             ....  212
 Basis Dimension        Dim             ....  822
 Nuclear Repulsion      ENuc            ....   3234.0983727128 Eh

Convergence Acceleration:
 AO-DIIS                CNVDIIS         .... on
   Start iteration      DIISMaxIt       ....    12
   Startup error        DIISStart       ....  0.200000
   # of expansion vecs  DIISMaxEq       ....     5
   Bias factor          DIISBfac        ....   1.050
   Max. coefficient     DIISMaxC        ....  10.000
 MO-DIIS                CNVKDIIS        .... off
 Trust-Rad. Augm. Hess. CNVTRAH         .... auto
   Auto Start mean grad. ratio tolernc. ....  1.125000
   Auto Start start iteration           ....    50
   Auto Start num. interpolation iter.  ....    10
   Max. Number of Micro iterations      ....    24
   Max. Number of Macro iterations      .... Maxiter - #DIIS iter
   Number of Davidson start vectors     ....     2
   Converg. threshold    (grad. norm)   ....   1.000e-05
   Grad. Scal. Fac. for Micro threshold ....   0.100
   Minimum threshold for Micro iter.    ....   1.000e-02
   NR start threshold (gradient norm)   ....   1.000e-04
   Initial trust radius                 ....   0.400
   Minimum AH scaling param. (alpha)    ....   1.000
   Maximum AH scaling param. (alpha)    .... 1000.000
   Quad. conv. algorithm                .... NR
   White noise on init. David. guess    .... on
   Maximum white noise                  ....   0.010
   Pseudo random numbers                .... off
   Inactive MOs                         .... canonical
   Orbital update algorithm             .... Taylor
   Preconditioner                       .... Diag
   Full preconditioner red. dimension   ....   250
 SOSCF                  CNVSOSCF        .... on
   Start iteration      SOSCFMaxIt      ....   150
   Startup grad/error   SOSCFStart      ....  0.003300
   Hessian update       SOSCFHessUp     .... L-BFGS
 Level Shifting         CNVShift        .... on
   Level shift para.    LevelShift      ....    0.2500
   Turn off err/grad.   ShiftErr        ....    0.0010
 Zerner damping         CNVZerner       .... off
 Static damping         CNVDamp         .... on
   Fraction old density DampFac         ....    0.7000
   Max. Damping (<1)    DampMax         ....    0.9800
   Min. Damping (>=0)   DampMin         ....    0.0000
   Turn off err/grad.   DampErr         ....    0.1000

SCF Procedure:
 Maximum # iterations   MaxIter         ....   125
 SCF integral mode      SCFMode         .... Direct
   Integral package                     .... SHARK and LIBINT hybrid scheme
 Reset frequency        DirectResetFreq ....    20
 Integral Threshold     Thresh          ....  2.500e-11 Eh
 Primitive CutOff       TCut            ....  2.500e-12 Eh

Convergence Tolerance:
 Convergence Check Mode ConvCheckMode   .... Total+1el-Energy
 Convergence forced     ConvForced      .... 1
 Energy Change          TolE            ....  1.000e-08 Eh
 1-El. energy change                    ....  1.000e-05 Eh
 Orbital Gradient       TolG            ....  1.000e-05
 Orbital Rotation angle TolX            ....  1.000e-05
 DIIS Error             TolErr          ....  5.000e-07

------------------------------
INITIAL GUESS: MODEL POTENTIAL
------------------------------
Loading Hartree-Fock densities                     ... done
Calculating cut-offs                               ... done
Initializing the effective Hamiltonian             ... done
Setting up the integral package (SHARK)            ... done
Starting the Coulomb interaction                   ... done (   3.2 sec)
Making the grid                                    ... done (  25.3 sec)
Mapping shells                                     ... done
Starting the XC term evaluation                    ... done (   2.5 sec)
  promolecular density results
     # of electrons  =    212.984348669
     EX              =   -186.064962102
     EC              =     -7.296188159
     EX+EC           =   -193.361150261
Transforming the Hamiltonian                       ... done (   5.9 sec)
Diagonalizing the Hamiltonian                      ... done (   0.5 sec)
Back transforming the eigenvectors                 ... done (  10.2 sec)
Now organizing SCF variables                       ... done
                      ------------------
                      INITIAL GUESS DONE (  99.9 sec)
                      ------------------
             **** ENERGY FILE WAS UPDATED (hbq-dcp-es.en.tmp) ****
Finished Guess after 194.4 sec
Maximum memory used throughout the entire GUESS-calculation: 84.1 MB


           ************************************************************
           *        Program running with 200 parallel MPI-processes   *
           *              working on a common directory               *
           ************************************************************

-------------------------------------------------------------------------------------------
                                      ORCA LEAN-SCF
                              memory conserving SCF solver
-------------------------------------------------------------------------------------------

--------------------
CPCM SOLVATION MODEL
--------------------
CPCM parameters:
  Epsilon                                         ...      80.1510
  Refrac                                          ...       1.3328
  Rsolv                                           ...       1.3000
  Surface type                                    ... GAUSSIAN VDW
  Discretization scheme                           ... Constant charge density
    Threshold for H atoms                         ...       5.0000 (charges/Ang^2)
    Threshold for non-H atoms                     ...       5.0000 (charges/Ang^2)
  Epsilon function type                           ...         CPCM
Solvent:                                          ... WATER
Radii:
  Scheme                                          ... Element-dependent radii
  Radius for C  used is    3.8550 Bohr (=   2.0400 Ang.)
  Radius for O  used is    3.4469 Bohr (=   1.8240 Ang.)
  Radius for N  used is    3.5149 Bohr (=   1.8600 Ang.)
  Radius for H  used is    2.4944 Bohr (=   1.3200 Ang.)
  Radius for P  used is    4.0818 Bohr (=   2.1600 Ang.)
Calculating surface                               ...        done! (  0.0s)
Cavity surface points                             ...         4183
Cavity Volume                                     ...    3016.3968
Cavity Surface-area                               ...    1439.0129
Calculating surface distance matrix               ...        done! (  0.4s)
Performing Cholesky decomposition & store         ...        done! (  3.2s)
Overall time for CPCM initialization              ...                 3.6s

----------------------------------------D-I-I-S--------------------------------------------
Iteration    Energy (Eh)           Delta-E    RMSDP     MaxDP     DIISErr   Damp  Time(sec)
-------------------------------------------------------------------------------------------
               ***  Starting incremental Fock matrix formation  ***
    1    -1602.7206837704952704     0.00e+00  2.01e-03  2.00e-01  3.28e-01  0.700 250.3
    2    -1603.0129322285019953    -2.92e-01  1.57e-03  1.55e-01  1.35e-01  0.700 274.2
                               ***Turning on AO-DIIS***
    3    -1603.1384191089791784    -1.25e-01  1.06e-03  1.13e-01  4.64e-02  0.700 254.9
    4    -1603.2149712939199162    -7.66e-02  2.36e-03  2.60e-01  2.50e-02  0.000 246.8
    5    -1603.3824640309285314    -1.67e-01  1.60e-04  7.89e-03  5.14e-03  0.000 249.4
                              *** Initializing SOSCF ***
---------------------------------------S-O-S-C-F--------------------------------------
Iteration    Energy (Eh)           Delta-E    RMSDP     MaxDP     MaxGrad    Time(sec)
--------------------------------------------------------------------------------------
    6    -1603.3830005735180748    -5.37e-04  5.04e-05  2.65e-03  1.54e-03   268.9
               *** Restarting incremental Fock matrix formation ***
    7    -1603.3830597183505233    -5.91e-05  8.88e-05  5.52e-03  5.62e-04   243.2
    8    -1603.3830757156256368    -1.60e-05  5.20e-05  2.90e-03  2.58e-04   252.6
    9    -1603.3830819618879104    -6.25e-06  4.07e-05  2.60e-03  9.82e-05   247.4
   10    -1603.3830832373523663    -1.28e-06  8.60e-06  4.92e-04  2.09e-05   251.0
   11    -1603.3830833335623538    -9.62e-08  5.82e-06  3.49e-04  1.84e-05   248.9
   12    -1603.3830833763258852    -4.28e-08  6.99e-06  8.94e-04  5.60e-06   254.2
   13    -1603.3830833677748160     8.55e-09  2.35e-06  2.26e-04  4.60e-06   256.6
                 **** Energy Check signals convergence ****

               *****************************************************
               *                     SUCCESS                       *
               *           SCF CONVERGED AFTER  13 CYCLES          *
               *****************************************************

Recomputing exchange energy using gridx3       ... done (   17.526 sec)
Old exchange energy                            :    -52.671385179 Eh
New exchange energy                            :    -52.671414972 Eh
Exchange energy change after final integration :     -0.000029793 Eh
Total energy after final integration           :  -1603.383113161 Eh
             **** ENERGY FILE WAS UPDATED (hbq-dcp-es.en.tmp) ****

----------------
TOTAL SCF ENERGY
----------------

Total Energy       :      -1603.38311316090176 Eh          -43630.27263 eV

Components:
Nuclear Repulsion  :       3234.09837271279685 Eh           88004.29077 eV
Electronic Energy  :      -4837.40427876305148 Eh         -131632.46249 eV
One Electron Energy:      -8601.64384508322109 Eh         -234062.62854 eV
Two Electron Energy:       3764.23956632016962 Eh          102430.16605 eV
CPCM Dielectric    :         -0.07717731752013 Eh              -2.10010 eV

Virial components:
Potential Energy   :      -3200.99421094359832 Eh          -87103.48074 eV
Kinetic Energy     :       1597.61109778269656 Eh           43473.20811 eV
Virial Ratio       :          2.00361290390773

DFT components:
N(Alpha)           :      105.999872164094 electrons
N(Beta)            :      105.999872164094 electrons
N(Total)           :      211.999744328188 electrons
[...]
      px      :     1.073781
      py      :     1.082223
      dz2     :     0.153529  d :     0.484380
      dxz     :     0.100139
      dyz     :     0.098814
      dx2y2   :     0.100931
      dxy     :     0.030967
 40 C s       :     2.833376  s :     2.833376
      pz      :     1.072844  p :     3.211784
      px      :     1.061436
      py      :     1.077504
      dz2     :     0.047763  d :     0.236958
      dxz     :     0.063089
      dyz     :     0.033060
      dx2y2   :     0.070005
      dxy     :     0.023041
 41 H s       :     0.815878  s :     0.815878
      pz      :     0.032591  p :     0.060156
      px      :     0.012812
      py      :     0.014753
 42 H s       :     0.815902  s :     0.815902
      pz      :     0.020704  p :     0.058754
      px      :     0.030840
      py      :     0.007210
 43 H s       :     0.821690  s :     0.821690
      pz      :     0.019578  p :     0.060439
      px      :     0.027974
      py      :     0.012887
 44 H s       :     0.812672  s :     0.812672
      pz      :     0.013546  p :     0.060315
      px      :     0.012069
      py      :     0.034700
 45 H s       :     0.822456  s :     0.822456
      pz      :     0.029767  p :     0.060542
      px      :     0.012059
      py      :     0.018717
 46 C s       :     2.833082  s :     2.833082
      pz      :     1.067506  p :     3.212762
      px      :     1.073629
      py      :     1.071627
      dz2     :     0.065192  d :     0.237283
      dxz     :     0.029005
      dyz     :     0.026846
      dx2y2   :     0.086622
      dxy     :     0.029618
 47 H s       :     0.818797  s :     0.818797
      pz      :     0.007758  p :     0.060598
      px      :     0.038764
      py      :     0.014076
 48 H s       :     0.815730  s :     0.815730
      pz      :     0.008013  p :     0.058243
      px      :     0.013072
      py      :     0.037158
 49 H s       :     0.821357  s :     0.821357
      pz      :     0.012785  p :     0.060458
      px      :     0.034290
      py      :     0.013383
 50 H s       :     0.821800  s :     0.821800
      pz      :     0.013280  p :     0.060795
      px      :     0.012770
      py      :     0.034745
 51 H s       :     0.813026  s :     0.813026
      pz      :     0.033895  p :     0.060263
      px      :     0.013466
      py      :     0.012902


                      *****************************
                      * MAYER POPULATION ANALYSIS *
                      *****************************

  NA   - Mulliken gross atomic population
  ZA   - Total nuclear charge
  QA   - Mulliken gross atomic charge
  VA   - Mayer's total valence
  BVA  - Mayer's bonded valence
  FA   - Mayer's free valence

  ATOM       NA         ZA         QA         VA         BVA        FA
  0 C      6.1445     6.0000    -0.1445     3.9767     3.8406     0.1361
  1 C      6.1102     6.0000    -0.1102     3.8394     3.7466     0.0929
  2 C      6.0975     6.0000    -0.0975     3.7599     3.5631     0.1968
  3 C      5.6621     6.0000     0.3379     3.7383     3.5780     0.1602
  4 C      5.8659     6.0000     0.1341     3.9256     3.8907     0.0350
  5 O      8.4878     8.0000    -0.4878     2.0459     1.9973     0.0486
  6 C      5.8765     6.0000     0.1235     4.0228     3.9326     0.0902
  7 C      6.1282     6.0000    -0.1282     3.7704     3.6353     0.1351
  8 C      6.1774     6.0000    -0.1774     3.7851     3.6298     0.1552
  9 C      5.9304     6.0000     0.0696     3.8664     3.6731     0.1932
 10 C      5.7423     6.0000     0.2577     3.8999     3.8454     0.0545
 11 N      7.3476     7.0000    -0.3476     3.0483     2.9290     0.1193
 12 C      6.0370     6.0000    -0.0370     4.0243     3.8354     0.1890
 13 C      6.0652     6.0000    -0.0652     3.8347     3.7924     0.0423
 14 C      6.2422     6.0000    -0.2422     3.8875     3.6014     0.2861
 15 C      5.2736     6.0000     0.7264     4.1619     4.1557     0.0062
 16 O      8.5849     8.0000    -0.5849     2.0329     2.0237     0.0092
 17 N      7.2280     7.0000    -0.2280     3.2638     3.2479     0.0160
 18 C      6.3076     6.0000    -0.3076     3.8097     3.8086     0.0011
 19 C      6.2802     6.0000    -0.2802     3.8116     3.8105     0.0011
 20 H      0.8431     1.0000     0.1569     0.9477     0.9466     0.0011
 21 H      0.8407     1.0000     0.1593     0.9738     0.9733     0.0006
 22 H      0.8438     1.0000     0.1562     0.9491     0.9484     0.0008
 23 H      0.8372     1.0000     0.1628     0.9431     0.9418     0.0012
 24 H      0.8313     1.0000     0.1687     0.9654     0.9652     0.0002
 25 H      0.8347     1.0000     0.1653     0.9442     0.9437     0.0006
 26 H      0.8353     1.0000     0.1647     0.9638     0.9633     0.0005
 27 H      0.8360     1.0000     0.1640     0.9653     0.9643     0.0010
 28 H      0.8492     1.0000     0.1508     0.9646     0.9636     0.0010
 29 H      0.8430     1.0000     0.1570     0.9681     0.9675     0.0006
 30 H      0.8448     1.0000     0.1552     0.9689     0.9673     0.0016
 31 H      0.8072     1.0000     0.1928     0.9602     0.9560     0.0042
 32 H      0.8560     1.0000     0.1440     0.9669     0.9661     0.0009
 33 H      0.8496     1.0000     0.1504     0.9689     0.9670     0.0019
 34 P     13.3422    15.0000     1.6578     4.8749     4.8500     0.0249
 35 O      8.8165     8.0000    -0.8165     1.8657     1.8629     0.0028
 36 O      8.5539     8.0000    -0.5539     1.8842     1.8841     0.0001
 37 O      8.5473     8.0000    -0.5473     1.8883     1.8813     0.0070
 38 C      6.0255     6.0000    -0.0255     3.7789     3.7789    -0.0000
 39 C      6.0277     6.0000    -0.0277     3.8264     3.8262     0.0002
 40 C      6.3988     6.0000    -0.3988     3.8841     3.8840     0.0001
 41 H      0.8513     1.0000     0.1487     0.9510     0.9508     0.0002
 42 H      0.8494     1.0000     0.1506     0.9453     0.9453     0.0000
 43 H      0.8613     1.0000     0.1387     0.9573     0.9573    -0.0000
 44 H      0.8484     1.0000     0.1516     0.9548     0.9548    -0.0000
 45 H      0.8572     1.0000     0.1428     0.9534     0.9534     0.0000
 46 C      6.3881     6.0000    -0.3881     3.8552     3.8545     0.0007
 47 H      0.8623     1.0000     0.1377     0.9666     0.9666     0.0001
 48 H      0.8552     1.0000     0.1448     0.9464     0.9459     0.0005
 49 H      0.8654     1.0000     0.1346     0.9602     0.9602     0.0000
 50 H      0.8597     1.0000     0.1403     0.9481     0.9485    -0.0004
 51 H      0.8489     1.0000     0.1511     0.9554     0.9554     0.0000

  Mayer bond orders larger than 0.100000
B(  0-C ,  1-C ) :   1.3477 B(  0-C ,  3-C ) :   1.3395 B(  0-C , 27-H ) :   0.9740 
B(  1-C ,  2-C ) :   1.3087 B(  1-C , 28-H ) :   0.9876 B(  2-C ,  6-C ) :   1.2227 
B(  2-C , 26-H ) :   0.9658 B(  3-C ,  4-C ) :   1.2081 B(  3-C ,  5-O ) :   0.8717 
B(  4-C ,  6-C ) :   1.2867 B(  4-C ,  9-C ) :   1.2231 B(  4-C , 11-N ) :   0.1118 
B(  5-O , 15-C ) :   0.9251 B(  6-C ,  7-C ) :   1.2582 B(  7-C ,  8-C ) :   1.3294 
B(  7-C , 29-H ) :   0.9756 B(  8-C , 10-C ) :   1.2005 B(  8-C , 30-H ) :   0.9824 
B(  9-C , 10-C ) :   1.2549 B(  9-C , 11-N ) :   0.9843 B( 10-C , 14-C ) :   1.2993 
B( 11-N , 12-C ) :   1.0953 B( 11-N , 34-P ) :   0.8020 B( 12-C , 13-C ) :   1.5744 
B( 12-C , 31-H ) :   0.9457 B( 13-C , 14-C ) :   1.2278 B( 13-C , 32-H ) :   0.9742 
B( 14-C , 33-H ) :   0.9704 B( 15-C , 16-O ) :   1.8510 B( 15-C , 17-N ) :   1.3763 
B( 17-N , 18-C ) :   0.9257 B( 17-N , 19-C ) :   0.9286 B( 18-C , 23-H ) :   0.9626 
B( 18-C , 24-H ) :   0.9608 B( 18-C , 25-H ) :   0.9557 B( 19-C , 20-H ) :   0.9626 
B( 19-C , 21-H ) :   0.9635 B( 19-C , 22-H ) :   0.9608 B( 34-P , 35-O ) :   1.7262 
B( 34-P , 36-O ) :   1.0528 B( 34-P , 37-O ) :   1.0247 B( 36-O , 38-C ) :   0.8392 
B( 37-O , 39-C ) :   0.8691 B( 38-C , 40-C ) :   0.9932 B( 38-C , 41-H ) :   0.9533 
B( 38-C , 42-H ) :   0.9681 B( 39-C , 46-C ) :   0.9878 B( 39-C , 47-H ) :   0.9687 
B( 39-C , 48-H ) :   0.9622 B( 40-C , 43-H ) :   0.9728 B( 40-C , 44-H ) :   0.9675 
B( 40-C , 45-H ) :   0.9739 B( 46-C , 49-H ) :   0.9727 B( 46-C , 50-H ) :   0.9686 
B( 46-C , 51-H ) :   0.9662 

Environment variable NBOEXE for nbo6.exe or nbo5.exe not set! Skipping NBO-Analysis


-------
TIMINGS
-------

Total TD-DFT gradient time  ....     1826.526 sec

Fock matrix formation       ....     531.598 sec  ( 29.1%)
  Coulomb formation         ....     228.182 sec  ( 42.9% of F)
  XC integration            ....     303.416 sec  ( 57.1% of F)
Z-vector equation           ....     859.122 sec  ( 47.0%)
Densities                   ....       0.003 sec  (  0.0%)
One electron gradient       ....       0.231 sec  (  0.0%)
Two electron gradient       ....       0.000 sec  (  0.0%)
RI-J Coulomb gradient       ....       5.590 sec  (  0.3%)
COSX gradient               ....      36.974 sec  (  2.0%)
XC gradient                 ....      77.348 sec  (  4.2%)
CPCM gradient               ....       2.459 sec  (  0.1%)
   A-Matrix (El+Nuc)        ....       1.194 sec  (  0.1%)
   Potential                ....       1.264 sec  (  0.1%)

Maximum memory used throughout the entire CIS-calculation: 339.4 MB
=> NOW LEAVING ORCA_CIS

-------------------------   --------------------
FINAL SINGLE POINT ENERGY     -1603.281505525197
-------------------------   --------------------

                                *** OPTIMIZATION RUN DONE ***



           ************************************************************
           *        Program running with 200 parallel MPI-processes   *
           *              working on a common directory               *
           ************************************************************

------------------------------------------------------------------------------
                              ORCA PROPERTY CALCULATIONS
------------------------------------------------------------------------------

GBWName                                 ... hbq-dcp-es.gbw
Number of atoms                         ...     52
Number of basis functions               ...    822
Max core memory                         ...   1024 MB

Electric properties:
Dipole moment                           ... YES
Quadrupole moment                       ...  NO
Static polarizability (Dipole/Dipole)   ...  NO
Static polarizability (Dipole/Quad.)    ...  NO
Static polarizability (Quad./Quad.)     ...  NO
Static polarizability (Velocity)        ...  NO

Atomic electric properties:
Dipole moment                           ...  NO
Quadrupole moment                       ...  NO
Static polarizability                   ...  NO

Choice of electric origin               ... Center of mass
Position of electric origin             ...    -3.118831     3.218916     2.034907

General magnetic properties:
Magnetizability                         ...  NO

EPR properties:
g-Tensor (aka g-matrix)                 ...  NO
Zero-Field splitting spin-orbit         ...  NO
Zero-field splitting spin-spin          ...  NO
Hyperfine couplings                     ...  NO (   0 nuclei)
Quadrupole couplings                    ...  NO (   0 nuclei)
Contact density                         ...  NO (   0 nuclei)

NMR properties:
Chemical shifts                         ...  NO (   0 nuclei)
Spin-rotation constants                 ...  NO (   0 nuclei)
Spin-spin couplings                     ...  NO (   0 nuclei,    0 pairs)

Choice of magnetic origin               ... GIAO
Position of magnetic origin             ...     0.000000     0.000000     0.000000

Properties with geometric perturbations:
SCF Hessian                             ...  NO
IR spectrum                             ...  NO
VCD spectrum                            ...  NO
X-ray spectroscopy properties:
SCF XES/XAS/RIXS spectra                ...  NO


-------------
DIPOLE MOMENT
-------------

Method             : SCF
Type of density    : Electron Density
Multiplicity       :   1
Irrep              :   0
Energy             : -1603.3824881342416120 Eh
Relativity type    : 
Basis              : AO
                                X                 Y                 Z
Electronic contribution:     -6.415662334     -14.448641449       6.711746809
Nuclear contribution   :      9.121354654      15.352590361      -5.755365028
                        -----------------------------------------
Total Dipole Moment    :      2.705692321       0.903948912       0.956381781
                        -----------------------------------------
Magnitude (a.u.)       :      3.008747361
Magnitude (Debye)      :      7.647628023



--------------------
Rotational spectrum 
--------------------
 
Rotational constants in cm-1:             0.007228             0.006223             0.004737 
Rotational constants in MHz :           216.697945           186.573512           141.999244 

Dipole components along the rotational axes: 
x,y,z [a.u.] :     1.247930     2.230438    -1.587570 
x,y,z [Debye]:     3.171986     5.669322    -4.035282 

 

-------------
DIPOLE MOMENT
-------------

Method             : TDA/CIS
Type of density    : Electron Density
Level              : Relaxed density
State              :   1
Multiplicity       :   1
Irrep              :   0
Energy             :     0.0000000000000000 Eh
Relativity type    : 
Basis              : AO
                                X                 Y                 Z
Electronic contribution:     -9.273740643     -15.730969143       6.389530806
Nuclear contribution   :      9.121354654      15.352590361      -5.755365028
                        -----------------------------------------
Total Dipole Moment    :     -0.152385989      -0.378378783       0.634165778
                        -----------------------------------------
Magnitude (a.u.)       :      0.754028001
Magnitude (Debye)      :      1.916586866



--------------------
Rotational spectrum 
--------------------
 
Rotational constants in cm-1:             0.007228             0.006223             0.004737 
Rotational constants in MHz :           216.697945           186.573512           141.999244 

Dipole components along the rotational axes: 
x,y,z [a.u.] :    -0.648475     0.370472     0.103871 
x,y,z [Debye]:    -1.648292     0.941664     0.264020 

 

Dipole moment calculation done in  43.4 sec 

Maximum memory used throughout the entire PROP-calculation: 96.7 MB

--------------------------------
SUGGESTED CITATIONS FOR THIS RUN
--------------------------------

Below you find a list of papers that are relevant to this ORCA run
We neither can nor want to force you to cite these papers, but we appreciate if you do
You receive ORCA, which is the product of decades of hard work by many enthusiastic individuals, for free
The only thing we kindly ask in return is that you cite our papers,
We deeply appreciate it, if you show your appreciation for ORCA by not just citing the generic ORCA reference.

Please note that relegating all ORCA citations to the supporting information does *not* help us.
SI sections are not indexed - citations you put there will not count into any citation statistics
But we need these citations in order to attract the funding resources that allow us to do what we are doing

Therefore, if you are a happy ORCA user, please consider citing a few of the papers listed below in the main body of your paper

In addition to the list printed below, the program has created the file hbq-dcp-es.bibtex that contains the list in bibtex format
You can import this file easily into all common literature databanks and citation aid programs


List of essential papers. We consider these as the minimum necessary citations

  1. Neese,F.
     Software update: the ORCA program system, version 5.0
     WIRES Comput. Molec. Sci., 2022 12(1)e1606
     doi.org/10.1002/wcms.1606

List of papers to cite with high priority. The work reported in these papers was absolutely
necessary for this run to complete.
Our perspective: the developers of density functionals and basis sets usually get cited in chemistry papers
Good! But without the algorithms to do something with them, the functionals or basis sets would not do anything.
Hence, in our opinion, the algorithm design and method developments papers are equally worthy of getting cited

  1. Neese,F.; Olbrich,G.
     Efficient use of the resolution of the identity approximation in time-dependent density functional calculations with hybrid density functionals
     Chem. Phys. Lett., 2002 362 170-178
     doi.org/10.1016/s0009-2614(02)01053-9
  2. Neese,F.
     An improvement of the resolution of the identity approximation for the formation of the Coulomb matrix
     J. Comp. Chem., 2003 24(14)1740-1747
     doi.org/10.1002/jcc.10318
  3. Neese,F.; Wennmohs,F.; Hansen,A.; Becker,U.
     Efficient, approximate and parallel Hartree-Fock and hybrid DFT calculations. A 'chain-of-spheres' algorithm for the Hartree-Fock exchange
     Chem. Phys., 2009 356(1-3)98-109
     doi.org/10.1016/j.chemphys.2008.10.036
  4. Petrenko,T.; Kossmann,S.; Neese,F.
     Efficient time-dependent density functional theory approximations for hybrid density functionals: Analytical gradients and parallelization
     J. Chem. Phys., 2011 134 054116
     doi.org/10.1063/1.3533441
  5. Garcia-Rates,M.; Neese,F.
     Effect of the Solute Cavity on the Solvation Energy and its Derivatives within the Framework of the Gaussian Charge Scheme
     J. Comput. Chem., 2020 41 922-939
     doi.org/10.1002/jcc.26139
  6. Helmich-Paris,B.; de Souza,B.; Neese,F.; Izsák,R.
     An improved chain of spheres for exchange algorithm
     J. Chem. Phys., 2021 155 104109
     doi.org/doi: 10.1063/5.0058766.
  7. Neese,F.
     The SHARK Integral Generation and Digestion System
     J. Comp. Chem., 2022  1-16
     doi.org/10.1002/jcc.26942

List of suggested additional citations. These are papers that are important in the 'surrounding' of 
of this run, or papers that preceded the highly important papers. If you like your results we are grateful for a citation.

  1. Izsak,R.; Neese,F.
     An overlap fitted chain of spheres exchange method
     J. Chem. Phys., 2011 135 144105
     doi.org/10.1063/1.3646921
  2. Izsak,R.; Hansen,A.; Neese,F.
     The resolution of identity and chain of spheres approximations for the LPNO-CCSD singles Fock term
     Molec. Phys., 2012 110 2413-2417
     doi.org/10.1080/00268976.2012.687466
  3. Neese,F.
     The ORCA program system
     WIRES Comput. Molec. Sci., 2012 2(1)73-78
     doi.org/10.1002/wcms.81
  4. Izsak,R.; Neese,F.; Klopper,W.
     Robust fitting techniques in the chain of spheres approximation to the Fock exchange: The role of the complementary space
     J. Chem. Phys., 2013 139 
     doi.org/10.1063/1.4819264
  5. Neese,F.
     Software update: the ORCA program system, version 4.0
     WIRES Comput. Molec. Sci., 2018 8(1)1-6
     doi.org/10.1002/wcms.1327
  6. Neese,F.; Wennmohs,F.; Becker,U.; Riplinger,C.
     The ORCA quantum chemistry program package
     J. Chem. Phys., 2020 152 Art. No. L224108
     doi.org/10.1063/5.0004608

List of optional additional citations

  1. Neese,F.
     Approximate second-order SCF convergence for spin unrestricted wavefunctions
     Chem. Phys. Lett., 2000 325(1-3)93-98
     doi.org/10.1016/s0009-2614(00)00662-x

Timings for individual modules:

Sum of individual times          ...   259058.740 sec (=4317.646 min)
Startup calculation              ...     7090.755 sec (= 118.179 min)   2.7 %
SCF iterations                   ...   115837.272 sec (=1930.621 min)  44.7 %
Property integrals               ...     2829.891 sec (=  47.165 min)   1.1 %
Property calculations            ...      111.080 sec (=   1.851 min)   0.0 %
CIS module                       ...   133186.897 sec (=2219.782 min)  51.4 %
Geometry relaxation              ...        2.846 sec (=   0.047 min)   0.0 %
                             ****ORCA TERMINATED NORMALLY****
TOTAL RUN TIME: 3 days 0 hours 34 minutes 29 seconds 949 msec
