
                                 *****************
                                 * O   R   C   A *
                                 *****************

                                            #,                                       
                                            ###                                      
                                            ####                                     
                                            #####                                    
                                            ######                                   
                                           ########,                                 
                                     ,,################,,,,,                         
                               ,,#################################,,                 
                          ,,##########################################,,             
                       ,#########################################, ''#####,          
                    ,#############################################,,   '####,        
                  ,##################################################,,,,####,       
                ,###########''''           ''''###############################       
              ,#####''   ,,,,##########,,,,          '''####'''          '####       
            ,##' ,,,,###########################,,,                        '##       
           ' ,,###''''                  '''############,,,                           
         ,,##''                                '''############,,,,        ,,,,,,###''
      ,#''                                            '''#######################'''  
     '                                                          ''''####''''         
             ,#######,   #######,   ,#######,      ##                                
            ,#'     '#,  ##    ##  ,#'     '#,    #''#        ######   ,####,        
            ##       ##  ##   ,#'  ##            #'  '#       #        #'  '#        
            ##       ##  #######   ##           ,######,      #####,   #    #        
            '#,     ,#'  ##    ##  '#,     ,#' ,#      #,         ##   #,  ,#        
             '#######'   ##     ##  '#######'  #'      '#     #####' # '####'        



                  #######################################################
                  #                        -***-                        #
                  #          Department of theory and spectroscopy      #
                  #    Directorship and core code : Frank Neese         #
                  #        Max Planck Institute fuer Kohlenforschung    #
                  #                Kaiser Wilhelm Platz 1               #
                  #                 D-45470 Muelheim/Ruhr               #
                  #                      Germany                        #
                  #                                                     #
                  #                  All rights reserved                #
                  #                        -***-                        #
                  #######################################################


                         Program Version 5.0.4 -  RELEASE  -


 With contributions from (in alphabetic order):
   Daniel Aravena         : Magnetic Suceptibility
   Michael Atanasov       : Ab Initio Ligand Field Theory (pilot matlab implementation)
   Alexander A. Auer      : GIAO ZORA, VPT2 properties, NMR spectrum
   Ute Becker             : Parallelization
   Giovanni Bistoni       : ED, misc. LED, open-shell LED, HFLD
   Martin Brehm           : Molecular dynamics
   Dmytro Bykov           : SCF Hessian
   Vijay G. Chilkuri      : MRCI spin determinant printing, contributions to CSF-ICE
   Dipayan Datta          : RHF DLPNO-CCSD density
   Achintya Kumar Dutta   : EOM-CC, STEOM-CC
   Dmitry Ganyushin       : Spin-Orbit,Spin-Spin,Magnetic field MRCI
   Miquel Garcia          : C-PCM and meta-GGA Hessian, CC/C-PCM, Gaussian charge scheme
   Yang Guo               : DLPNO-NEVPT2, F12-NEVPT2, CIM, IAO-localization
   Andreas Hansen         : Spin unrestricted coupled pair/coupled cluster methods
   Benjamin Helmich-Paris : MC-RPA, TRAH-SCF, COSX integrals
   Lee Huntington         : MR-EOM, pCC
   Robert Izsak           : Overlap fitted RIJCOSX, COSX-SCS-MP3, EOM
   Marcus Kettner         : VPT2
   Christian Kollmar      : KDIIS, OOCD, Brueckner-CCSD(T), CCSD density, CASPT2, CASPT2-K
   Simone Kossmann        : Meta GGA functionals, TD-DFT gradient, OOMP2, MP2 Hessian
   Martin Krupicka        : Initial AUTO-CI
   Lucas Lang             : DCDCAS
   Marvin Lechner         : AUTO-CI (C++ implementation), FIC-MRCC
   Dagmar Lenk            : GEPOL surface, SMD
   Dimitrios Liakos       : Extrapolation schemes; Compound Job, initial MDCI parallelization
   Dimitrios Manganas     : Further ROCIS development; embedding schemes
   Dimitrios Pantazis     : SARC Basis sets
   Anastasios Papadopoulos: AUTO-CI, single reference methods and gradients
   Taras Petrenko         : DFT Hessian,TD-DFT gradient, ASA, ECA, R-Raman, ABS, FL, XAS/XES, NRVS
   Peter Pinski           : DLPNO-MP2, DLPNO-MP2 Gradient
   Christoph Reimann      : Effective Core Potentials
   Marius Retegan         : Local ZFS, SOC
   Christoph Riplinger    : Optimizer, TS searches, QM/MM, DLPNO-CCSD(T), (RO)-DLPNO pert. Triples
   Tobias Risthaus        : Range-separated hybrids, TD-DFT gradient, RPA, STAB
   Michael Roemelt        : Original ROCIS implementation
   Masaaki Saitow         : Open-shell DLPNO-CCSD energy and density
   Barbara Sandhoefer     : DKH picture change effects
   Avijit Sen             : IP-ROCIS
   Kantharuban Sivalingam : CASSCF convergence, NEVPT2, FIC-MRCI
   Bernardo de Souza      : ESD, SOC TD-DFT
   Georgi Stoychev        : AutoAux, RI-MP2 NMR, DLPNO-MP2 response
   Willem Van den Heuvel  : Paramagnetic NMR
   Boris Wezisla          : Elementary symmetry handling
   Frank Wennmohs         : Technical directorship


 We gratefully acknowledge several colleagues who have allowed us to
 interface, adapt or use parts of their codes:
   Stefan Grimme, W. Hujo, H. Kruse, P. Pracht,  : VdW corrections, initial TS optimization,
                  C. Bannwarth, S. Ehlert          DFT functionals, gCP, sTDA/sTD-DF
   Ed Valeev, F. Pavosevic, A. Kumar             : LibInt (2-el integral package), F12 methods
   Garnet Chan, S. Sharma, J. Yang, R. Olivares  : DMRG
   Ulf Ekstrom                                   : XCFun DFT Library
   Mihaly Kallay                                 : mrcc  (arbitrary order and MRCC methods)
   Jiri Pittner, Ondrej Demel                    : Mk-CCSD
   Frank Weinhold                                : gennbo (NPA and NBO analysis)
   Christopher J. Cramer and Donald G. Truhlar   : smd solvation model
   Lars Goerigk                                  : TD-DFT with DH, B97 family of functionals
   V. Asgeirsson, H. Jonsson                     : NEB implementation
   FAccTs GmbH                                   : IRC, NEB, NEB-TS, DLPNO-Multilevel, CI-OPT
                                                   MM, QMMM, 2- and 3-layer-ONIOM, Crystal-QMMM,
                                                   LR-CPCM, SF, NACMEs, symmetry and pop. for TD-DFT,
                                                   nearIR, NL-DFT gradient (VV10), updates on ESD,
                                                   ML-optimized integration grids
   S Lehtola, MJT Oliveira, MAL Marques          : LibXC Library
   Liviu Ungur et al                             : ANISO software


 Your calculation uses the libint2 library for the computation of 2-el integrals
 For citations please refer to: http://libint.valeyev.net

 Your ORCA version has been built with support for libXC version: 5.1.0
 For citations please refer to: https://tddft.org/programs/libxc/

 This ORCA versions uses:
   CBLAS   interface :  Fast vector & matrix operations
   LAPACKE interface :  Fast linear algebra routines
   SCALAPACK package :  Parallel linear algebra routines
   Shared memory     :  Shared parallel matrices
   BLAS/LAPACK       :  OpenBLAS 0.3.15  USE64BITINT DYNAMIC_ARCH NO_AFFINITY Zen SINGLE_THREADED
        Core in use  :  Zen
   Copyright (c) 2011-2014, The OpenBLAS Project


================================================================================

----- Orbital basis set information -----
Your calculation utilizes the basis: def2-TZVP(-f)
   F. Weigend and R. Ahlrichs, Phys. Chem. Chem. Phys. 7, 3297 (2005).

----- AuxJ basis set information -----
Your calculation utilizes the auxiliary basis: def2/J
   F. Weigend, Phys. Chem. Chem. Phys. 8, 1057 (2006).

----- AuxC basis set information -----
Your calculation utilizes the auxiliary basis: def2-TZVP/C
  H-La, Hf-Rn : A. Hellweg, C. Hattig, S. Hofener and W. Klopper, Theor. Chem. Acc. 117, 587 (2007).
        Ce-Lu : J. Chmela and M. E. Harding, Mol. Phys. (2018).

================================================================================
                                        WARNINGS
                       Please study these warnings very carefully!
================================================================================


INFO   : the flag for use of the SHARK integral package has been found!

================================================================================
                                       INPUT FILE
================================================================================
NAME = HBQ-H.inp
|  1> ! B3LYP/G FREQ Def2-TZVP(-f) Def2-TZVP/C Def2/J RIJCOSX TightSCF CPCM(Water) AllPop SOSCF
|  2> 
|  3> * xyz 1 1
|  4>   C   -3.01702790775114     -0.84514476634390      0.12957078983516
|  5>   C   -2.56834167641945     -1.87168481643337     -0.70651470281704
|  6>   C   -1.27466347952566     -1.86754735564888     -1.17360434664761
|  7>   C   -2.17076631829237      0.17991799970713      0.48391261263324
|  8>   C   -0.82605043383854      0.21740449786757      0.03942599316776
|  9>   O   -2.61701385884328      1.16243586308769      1.35849640776159
| 10>   C   -0.38624596360050     -0.84007305502502     -0.81255310095355
| 11>   C   0.95633399035683     -0.85677031968754     -1.30841131280784
| 12>   C   1.84362239640369      0.11407723490934     -0.99362325501502
| 13>   C   0.13997808553778      1.23031723957669      0.37663275551036
| 14>   C   1.45819552475718      1.18821236494597     -0.13667094398183
| 15>   N   -0.16520440635224      2.26560451897377      1.20771289876579
| 16>   C   0.68195853278582      3.23669674806510      1.55149595037176
| 17>   C   1.97461010867338      3.23550371047868      1.05799924611902
| 18>   C   2.35593372969712      2.20822178427984      0.21948344407345
| 19>   C   -3.76258664106815      1.89746342976417      1.00841642707208
| 20>   O   -4.17709062191754      1.91832268410798     -0.13305089679644
| 21>   N   -4.25744186614365      2.55606554957414      2.06303077203014
| 22>   C   -5.36110402650877      3.49084571139698      1.86226291202136
| 23>   C   -3.77425715657713      2.43269514623701      3.43703156703941
| 24>   H   -3.11276030804584      1.58073949409095      3.53887911628619
| 25>   H   -4.63270058306687      2.29543337230213      4.09583278477734
| 26>   H   -3.24716522270643      3.34145469862870      3.73593237898693
| 27>   H   -5.57136393818305      3.58849900158363      0.80286004866652
| 28>   H   -5.08751745343689      4.46518324606206      2.27082299621717
| 29>   H   -6.25322045348352      3.13117001672022      2.37882917192891
| 30>   H   -0.91967850108308     -2.65759796532696     -1.82220280993340
| 31>   H   -4.03118654807741     -0.84753217114517      0.50371556918027
| 32>   H   -3.24697209952434     -2.66907476871570     -0.97896337900189
| 33>   H   1.24548778858810     -1.67623876422422     -1.95393946954274
| 34>   H   2.85595049516685      0.09800300229614     -1.37510673116412
| 35>   H   0.29621092925558      3.99102366369855      2.22108492349752
| 36>   H   2.65609448900128      4.02472750966881      1.33782082960180
| 37>   H   3.36268174798186      2.17396042766826     -0.17767311464768
| 38>   H   -1.10562835375948      2.27847506685917      1.59286446776533
| 39> *
| 40> 
| 41> 
| 42>                          ****END OF INPUT****
================================================================================

                       ****************************
                       * Single Point Calculation *
                       ****************************

---------------------------------
CARTESIAN COORDINATES (ANGSTROEM)
---------------------------------
  C     -3.017028   -0.845145    0.129571
  C     -2.568342   -1.871685   -0.706515
  C     -1.274663   -1.867547   -1.173604
  C     -2.170766    0.179918    0.483913
  C     -0.826050    0.217404    0.039426
  O     -2.617014    1.162436    1.358496
  C     -0.386246   -0.840073   -0.812553
  C      0.956334   -0.856770   -1.308411
  C      1.843622    0.114077   -0.993623
  C      0.139978    1.230317    0.376633
  C      1.458196    1.188212   -0.136671
  N     -0.165204    2.265605    1.207713
  C      0.681959    3.236697    1.551496
  C      1.974610    3.235504    1.057999
  C      2.355934    2.208222    0.219483
  C     -3.762587    1.897463    1.008416
  O     -4.177091    1.918323   -0.133051
  N     -4.257442    2.556066    2.063031
  C     -5.361104    3.490846    1.862263
  C     -3.774257    2.432695    3.437032
  H     -3.112760    1.580739    3.538879
  H     -4.632701    2.295433    4.095833
  H     -3.247165    3.341455    3.735932
  H     -5.571364    3.588499    0.802860
  H     -5.087517    4.465183    2.270823
  H     -6.253220    3.131170    2.378829
  H     -0.919679   -2.657598   -1.822203
  H     -4.031187   -0.847532    0.503716
  H     -3.246972   -2.669075   -0.978963
  H      1.245488   -1.676239   -1.953939
  H      2.855950    0.098003   -1.375107
  H      0.296211    3.991024    2.221085
  H      2.656094    4.024728    1.337821
  H      3.362682    2.173960   -0.177673
  H     -1.105628    2.278475    1.592864

----------------------------
CARTESIAN COORDINATES (A.U.)
----------------------------
  NO LB      ZA    FRAG     MASS         X           Y           Z
   0 C     6.0000    0    12.011   -5.701356   -1.597092    0.244853
   1 C     6.0000    0    12.011   -4.853462   -3.536972   -1.335119
   2 C     6.0000    0    12.011   -2.408765   -3.529153   -2.217791
   3 C     6.0000    0    12.011   -4.102154    0.339996    0.914462
   4 C     6.0000    0    12.011   -1.561009    0.410835    0.074504
   5 O     8.0000    0    15.999   -4.945439    2.196685    2.567186
   6 C     6.0000    0    12.011   -0.729899   -1.587508   -1.535503
   7 C     6.0000    0    12.011    1.807209   -1.619061   -2.472539
   8 C     6.0000    0    12.011    3.483941    0.215575   -1.877676
   9 C     6.0000    0    12.011    0.264520    2.324963    0.711733
  10 C     6.0000    0    12.011    2.755590    2.245396   -0.258271
  11 N     7.0000    0    14.007   -0.312191    4.281372    2.282247
  12 C     6.0000    0    12.011    1.288715    6.116470    2.931902
  13 C     6.0000    0    12.011    3.731472    6.114216    1.999329
  14 C     6.0000    0    12.011    4.452070    4.172934    0.414764
  15 C     6.0000    0    12.011   -7.110258    3.585686    1.905631
  16 O     8.0000    0    15.999   -7.893557    3.625105   -0.251430
  17 N     7.0000    0    14.007   -8.045399    4.830264    3.898563
  18 C     6.0000    0    12.011  -10.131018    6.596742    3.519167
  19 C     6.0000    0    12.011   -7.132312    4.597128    6.495048
  20 H     1.0000    0     1.008   -5.882265    2.987165    6.687512
  21 H     1.0000    0     1.008   -8.754535    4.337740    7.740002
  22 H     1.0000    0     1.008   -6.136253    6.314434    7.059889
  23 H     1.0000    0     1.008  -10.528352    6.781280    1.517186
  24 H     1.0000    0     1.008   -9.614015    8.437973    4.291234
  25 H     1.0000    0     1.008  -11.816874    5.917054    4.495336
  26 H     1.0000    0     1.008   -1.737940   -5.022132   -3.443464
  27 H     1.0000    0     1.008   -7.617839   -1.601604    0.951884
  28 H     1.0000    0     1.008   -6.135888   -5.043820   -1.849973
  29 H     1.0000    0     1.008    2.353631   -3.167632   -3.692410
  30 H     1.0000    0     1.008    5.396964    0.185199   -2.598575
  31 H     1.0000    0     1.008    0.559758    7.541942    4.197242
  32 H     1.0000    0     1.008    5.019291    7.605633    2.528115
  33 H     1.0000    0     1.008    6.354548    4.108190   -0.335754
  34 H     1.0000    0     1.008   -2.089335    4.305694    3.010078

--------------------------------
INTERNAL COORDINATES (ANGSTROEM)
--------------------------------
 C      0   0   0     0.000000000000     0.00000000     0.00000000
 C      1   0   0     1.397906563275     0.00000000     0.00000000
 C      2   1   0     1.375424709344   120.18521264     0.00000000
 C      1   2   3     1.375670919777   120.25120136     0.40552040
 C      4   1   2     1.416769001048   121.51908137   358.84936347
 O      4   1   2     1.389019450552   119.44704273   182.58149269
 C      3   2   1     1.405470427673   120.63088213     0.37628738
 C      7   3   2     1.431319355587   119.69614707   179.89512857
 C      8   7   3     1.352374656336   121.76298833   179.63847404
 C      5   4   1     1.439760995143   125.58967254   181.27969041
 C     10   5   4     1.415256416853   121.27069500   180.94923299
 N     10   5   4     1.362222562121   121.81998499     1.39239898
 C     12  10   5     1.333751082257   124.63201586   180.37834069
 C     13  12  10     1.383650431681   120.05556627   359.83819634
 C     14  13  12     1.379791509658   118.39697764   359.55208505
 C      6   4   1     1.405403328596   118.35766594   302.29212300
 O     16   6   4     1.214576597046   121.41705506   342.83527932
 N     16   6   4     1.338226386899   111.25423206   164.66329372
 C     18  16   6     1.460202673868   119.09092082   173.33104422
 C     18  16   6     1.461699662949   125.24058091   353.92795002
 H     20  18  16     1.083411019479   110.88961787   347.32110846
 H     20  18  16     1.090772641553   108.55441977   227.66443107
 H     20  18  16     1.092250670038   110.27555861   108.78638328
 H     19  18  16     1.084472139995   109.78562518   354.45824876
 H     19  18  16     1.091377380570   109.30381505   234.32552263
 H     19  18  16     1.091823715393   109.97668491   114.97584997
 H      3   2   1     1.082069437397   120.65870887   180.07961962
 H      1   2   3     1.080975375927   120.43237573   180.36477483
 H      2   1   3     1.081941896924   119.37312225   179.80619557
 H      8   7   3     1.082517922143   117.77293531   359.87183312
 H      9   8   7     1.081940942508   121.40913382   180.26431150
 H     13  12  10     1.079888745293   116.20093834   180.05726181
 H     14  13  12     1.079627382212   119.77773406   179.89167689
 H     15  14  13     1.082796723772   120.22601250   180.46866914
 H     12  10   5     1.016319134407   116.62389027     1.10676689

---------------------------
INTERNAL COORDINATES (A.U.)
---------------------------
 C      0   0   0     0.000000000000     0.00000000     0.00000000
 C      1   0   0     2.641660565401     0.00000000     0.00000000
 C      2   1   0     2.599176018488   120.18521264     0.00000000
 C      1   2   3     2.599641288779   120.25120136     0.40552040
 C      4   1   2     2.677305407010   121.51908137   358.84936347
 O      4   1   2     2.624866356232   119.44704273   182.58149269
 C      3   2   1     2.655954197626   120.63088213     0.37628738
 C      7   3   2     2.704801592240   119.69614707   179.89512857
 C      8   7   3     2.555617730932   121.76298833   179.63847404
 C      5   4   1     2.720753979122   125.58967254   181.27969041
 C     10   5   4     2.674447037126   121.27069500   180.94923299
 N     10   5   4     2.574227575857   121.81998499     1.39239898
 C     12  10   5     2.520424276287   124.63201586   180.37834069
 C     13  12  10     2.614720380959   120.05556627   359.83819634
 C     14  13  12     2.607428075164   118.39697764   359.55208505
 C      6   4   1     2.655827398748   118.35766594   302.29212300
 O     16   6   4     2.295217137087   121.41705506   342.83527932
 N     16   6   4     2.528881376427   111.25423206   164.66329372
 C     18  16   6     2.759383153630   119.09092082   173.33104422
 C     18  16   6     2.762212053018   125.24058091   353.92795002
 H     20  18  16     2.047350117287   110.88961787   347.32110846
 H     20  18  16     2.061261566909   108.55441977   227.66443107
 H     20  18  16     2.064054635963   110.27555861   108.78638328
 H     19  18  16     2.049355344459   109.78562518   354.45824876
 H     19  18  16     2.062404358034   109.30381505   234.32552263
 H     19  18  16     2.063247808613   109.97668491   114.97584997
 H      3   2   1     2.044814894567   120.65870887   180.07961962
 H      1   2   3     2.042747418015   120.43237573   180.36477483
 H      2   1   3     2.044573878001   119.37312225   179.80619557
 H      8   7   3     2.045662407911   117.77293531   359.87183312
 H      9   8   7     2.044572074416   121.40913382   180.26431150
 H     13  12  10     2.040693983707   116.20093834   180.05726181
 H     14  13  12     2.040200079063   119.77773406   179.89167689
 H     15  14  13     2.046189266637   120.22601250   180.46866914
 H     12  10   5     1.920564828694   116.62389027     1.10676689

---------------------
BASIS SET INFORMATION
---------------------
There are 4 groups of distinct atoms

 Group   1 Type C   : 11s6p2d contracted to 5s3p2d pattern {62111/411/11}
 Group   2 Type O   : 11s6p2d contracted to 5s3p2d pattern {62111/411/11}
 Group   3 Type N   : 11s6p2d contracted to 5s3p2d pattern {62111/411/11}
 Group   4 Type H   : 5s1p contracted to 3s1p pattern {311/1}

Atom   0C    basis set group =>   1
Atom   1C    basis set group =>   1
Atom   2C    basis set group =>   1
Atom   3C    basis set group =>   1
Atom   4C    basis set group =>   1
Atom   5O    basis set group =>   2
Atom   6C    basis set group =>   1
Atom   7C    basis set group =>   1
Atom   8C    basis set group =>   1
Atom   9C    basis set group =>   1
Atom  10C    basis set group =>   1
Atom  11N    basis set group =>   3
Atom  12C    basis set group =>   1
Atom  13C    basis set group =>   1
Atom  14C    basis set group =>   1
Atom  15C    basis set group =>   1
Atom  16O    basis set group =>   2
Atom  17N    basis set group =>   3
Atom  18C    basis set group =>   1
Atom  19C    basis set group =>   1
Atom  20H    basis set group =>   4
Atom  21H    basis set group =>   4
Atom  22H    basis set group =>   4
Atom  23H    basis set group =>   4
Atom  24H    basis set group =>   4
Atom  25H    basis set group =>   4
Atom  26H    basis set group =>   4
Atom  27H    basis set group =>   4
Atom  28H    basis set group =>   4
Atom  29H    basis set group =>   4
Atom  30H    basis set group =>   4
Atom  31H    basis set group =>   4
Atom  32H    basis set group =>   4
Atom  33H    basis set group =>   4
Atom  34H    basis set group =>   4
---------------------------------
AUXILIARY/J BASIS SET INFORMATION
---------------------------------
There are 4 groups of distinct atoms

 Group   1 Type C   : 12s5p4d2f1g contracted to 6s4p3d1f1g pattern {711111/2111/211/2/1}
 Group   2 Type O   : 12s5p4d2f1g contracted to 6s4p3d1f1g pattern {711111/2111/211/2/1}
 Group   3 Type N   : 12s5p4d2f1g contracted to 6s4p3d1f1g pattern {711111/2111/211/2/1}
 Group   4 Type H   : 5s2p1d contracted to 3s1p1d pattern {311/2/1}

Atom   0C    basis set group =>   1
Atom   1C    basis set group =>   1
Atom   2C    basis set group =>   1
Atom   3C    basis set group =>   1
Atom   4C    basis set group =>   1
Atom   5O    basis set group =>   2
Atom   6C    basis set group =>   1
Atom   7C    basis set group =>   1
Atom   8C    basis set group =>   1
Atom   9C    basis set group =>   1
Atom  10C    basis set group =>   1
Atom  11N    basis set group =>   3
Atom  12C    basis set group =>   1
Atom  13C    basis set group =>   1
Atom  14C    basis set group =>   1
Atom  15C    basis set group =>   1
Atom  16O    basis set group =>   2
Atom  17N    basis set group =>   3
Atom  18C    basis set group =>   1
Atom  19C    basis set group =>   1
Atom  20H    basis set group =>   4
Atom  21H    basis set group =>   4
Atom  22H    basis set group =>   4
Atom  23H    basis set group =>   4
Atom  24H    basis set group =>   4
Atom  25H    basis set group =>   4
Atom  26H    basis set group =>   4
Atom  27H    basis set group =>   4
Atom  28H    basis set group =>   4
Atom  29H    basis set group =>   4
Atom  30H    basis set group =>   4
Atom  31H    basis set group =>   4
Atom  32H    basis set group =>   4
Atom  33H    basis set group =>   4
Atom  34H    basis set group =>   4
---------------------------------
AUXILIARY/C BASIS SET INFORMATION
---------------------------------
There are 4 groups of distinct atoms

 Group   1 Type C   : 8s6p5d3f1g contracted to 8s6p4d3f1g pattern {11111111/111111/2111/111/1}
 Group   2 Type O   : 8s6p5d3f1g contracted to 8s6p4d3f1g pattern {11111111/111111/2111/111/1}
 Group   3 Type N   : 8s6p5d3f1g contracted to 8s6p4d3f1g pattern {11111111/111111/2111/111/1}
 Group   4 Type H   : 4s3p2d contracted to 4s2p1d pattern {1111/21/2}

Atom   0C    basis set group =>   1
Atom   1C    basis set group =>   1
Atom   2C    basis set group =>   1
Atom   3C    basis set group =>   1
Atom   4C    basis set group =>   1
Atom   5O    basis set group =>   2
Atom   6C    basis set group =>   1
Atom   7C    basis set group =>   1
Atom   8C    basis set group =>   1
Atom   9C    basis set group =>   1
Atom  10C    basis set group =>   1
Atom  11N    basis set group =>   3
Atom  12C    basis set group =>   1
Atom  13C    basis set group =>   1
Atom  14C    basis set group =>   1
Atom  15C    basis set group =>   1
Atom  16O    basis set group =>   2
Atom  17N    basis set group =>   3
Atom  18C    basis set group =>   1
Atom  19C    basis set group =>   1
Atom  20H    basis set group =>   4
Atom  21H    basis set group =>   4
Atom  22H    basis set group =>   4
Atom  23H    basis set group =>   4
Atom  24H    basis set group =>   4
Atom  25H    basis set group =>   4
Atom  26H    basis set group =>   4
Atom  27H    basis set group =>   4
Atom  28H    basis set group =>   4
Atom  29H    basis set group =>   4
Atom  30H    basis set group =>   4
Atom  31H    basis set group =>   4
Atom  32H    basis set group =>   4
Atom  33H    basis set group =>   4
Atom  34H    basis set group =>   4
------------------------------------------------------------------------------
                           ORCA GTO INTEGRAL CALCULATION
                           -- RI-GTO INTEGRALS CHOSEN --
------------------------------------------------------------------------------
------------------------------------------------------------------------------
                   ___                                                        
                  /   \      - P O W E R E D   B Y -                         
                 /     \                                                     
                 |  |  |   _    _      __       _____    __    __             
                 |  |  |  | |  | |    /  \     |  _  \  |  |  /  |          
                  \  \/   | |  | |   /    \    | | | |  |  | /  /          
                 / \  \   | |__| |  /  /\  \   | |_| |  |  |/  /          
                |  |  |   |  __  | /  /__\  \  |    /   |      \           
                |  |  |   | |  | | |   __   |  |    \   |  |\   \          
                \     /   | |  | | |  |  |  |  | |\  \  |  | \   \       
                 \___/    |_|  |_| |__|  |__|  |_| \__\ |__|  \__/        
                                                                              
                      - O R C A' S   B I G   F R I E N D -                    
                                      &                                       
                       - I N T E G R A L  F E E D E R -                       
                                                                              
 v1 FN, 2020, v2 2021                                                         
------------------------------------------------------------------------------


Reading SHARK input file HBQ-H.SHARKINP.tmp ... ok
----------------------
SHARK INTEGRAL PACKAGE
----------------------

Number of atoms                             ...     35
Number of basis functions                   ...    570
Number of shells                            ...    260
Maximum angular momentum                    ...      2
Integral batch strategy                     ... SHARK/LIBINT Hybrid
RI-J (if used) integral strategy            ... SPLIT-RIJ (Revised 2003 algorithm where possible)
Printlevel                                  ...      1
Contraction scheme used                     ... SEGMENTED contraction
Coulomb Range Separation                    ... NOT USED
Exchange Range Separation                   ... NOT USED
Finite Nucleus Model                        ... NOT USED
Auxiliary Coulomb fitting basis             ... AVAILABLE
   # of basis functions in Aux-J            ...   1145
   # of shells in Aux-J                     ...    375
   Maximum angular momentum in Aux-J        ...      4
Auxiliary J/K fitting basis                 ... NOT available
Auxiliary Correlation fitting basis         ... AVAILABLE
   # of basis functions in Aux-C            ...   1745
   # of shells in Aux-C                     ...    545
   Maximum angular momentum in Aux-C        ...      4
Auxiliary 'external' fitting basis          ... NOT available
Integral threshold                          ...     2.500000e-11
Primitive cut-off                           ...     2.500000e-12
Primitive pair pre-selection threshold      ...     2.500000e-12

Calculating pre-screening integrals         ... done (  0.1 sec) Dimension = 260
Organizing shell pair data                  ... done (  2.5 sec)
Shell pair information
Total number of shell pairs                 ...     33930
Shell pairs after pre-screening             ...     25418
Total number of primitive shell pairs       ...    111170
Primitive shell pairs kept                  ...     55288
          la=0 lb=0:   7496 shell pairs
          la=1 lb=0:   8358 shell pairs
          la=1 lb=1:   2342 shell pairs
          la=2 lb=0:   4216 shell pairs
          la=2 lb=1:   2376 shell pairs
          la=2 lb=2:    630 shell pairs

Calculating one electron integrals          ... done (  0.1 sec)
Calculating RI/J V-Matrix + Cholesky decomp.... done (  2.1 sec)
Calculating RI/C V-Matrix + Cholesky decomp.... done (  4.3 sec)
Calculating Nuclear repulsion               ... done (  0.0 sec) ENN=   1512.443782681833 Eh

SHARK setup successfully completed in  13.3 seconds

Maximum memory used throughout the entire GTOINT-calculation: 190.9 MB
-------------------------------------------------------------------------------
                                 ORCA SCF
-------------------------------------------------------------------------------

------------
SCF SETTINGS
------------
Hamiltonian:
 Density Functional     Method          .... DFT(GTOs)
 Exchange Functional    Exchange        .... B88
   X-Alpha parameter    XAlpha          ....  0.666667
   Becke's b parameter  XBeta           ....  0.004200
 Correlation Functional Correlation     .... LYP
 LDA part of GGA corr.  LDAOpt          .... VWN-3
 Gradients option       PostSCFGGA      .... off
 Hybrid DFT is turned on
   Fraction HF Exchange ScalHFX         ....  0.200000
   Scaling of DF-GGA-X  ScalDFX         ....  0.720000
   Scaling of DF-GGA-C  ScalDFC         ....  0.810000
   Scaling of DF-LDA-C  ScalLDAC        ....  1.000000
   Perturbative correction              ....  0.000000
   Density functional embedding theory  .... OFF
   NL short-range parameter             ....  4.800000
 RI-approximation to the Coulomb term is turned on
   Number of AuxJ basis functions       .... 1145
   RIJ-COSX (HFX calculated with COS-X)).... on


General Settings:
 Integral files         IntName         .... HBQ-H
 Hartree-Fock type      HFTyp           .... RHF
 Total Charge           Charge          ....    1
 Multiplicity           Mult            ....    1
 Number of Electrons    NEL             ....  140
 Basis Dimension        Dim             ....  570
 Nuclear Repulsion      ENuc            ....   1512.4437826818 Eh

Convergence Acceleration:
 DIIS                   CNVDIIS         .... on
   Start iteration      DIISMaxIt       ....    12
   Startup error        DIISStart       ....  0.200000
   # of expansion vecs  DIISMaxEq       ....     5
   Bias factor          DIISBfac        ....   1.050
   Max. coefficient     DIISMaxC        ....  10.000
 Trust-Rad. Augm. Hess. CNVTRAH         .... auto
   Auto Start mean grad. ratio tolernc. ....  1.125000
   Auto Start start iteration           ....    20
   Auto Start num. interpolation iter.  ....    10
   Max. Number of Micro iterations      ....    16
   Max. Number of Macro iterations      .... Maxiter - #DIIS iter
   Number of Davidson start vectors     ....     2
   Converg. threshold I  (grad. norm)   ....   1.000e-05
   Converg. threshold II (energy diff.) ....   1.000e-08
   Grad. Scal. Fac. for Micro threshold ....   0.100
   Minimum threshold for Micro iter.    ....   0.010
   NR start threshold (gradient norm)   ....   0.001
   Initial trust radius                 ....   0.400
   Minimum AH scaling param. (alpha)    ....   1.000
   Maximum AH scaling param. (alpha)    .... 1000.000
   Orbital update algorithm             .... Taylor
   White noise on init. David. guess    .... on
   Maximum white noise                  ....   0.010
   Quad. conv. algorithm                .... NR
 SOSCF                  CNVSOSCF        .... on
   Start iteration      SOSCFMaxIt      ....   150
   Startup grad/error   SOSCFStart      ....  0.003300
 Level Shifting         CNVShift        .... on
   Level shift para.    LevelShift      ....    0.2500
   Turn off err/grad.   ShiftErr        ....    0.0010
 Zerner damping         CNVZerner       .... off
 Static damping         CNVDamp         .... on
   Fraction old density DampFac         ....    0.7000
   Max. Damping (<1)    DampMax         ....    0.9800
   Min. Damping (>=0)   DampMin         ....    0.0000
   Turn off err/grad.   DampErr         ....    0.1000
 Fernandez-Rico         CNVRico         .... off

SCF Procedure:
 Maximum # iterations   MaxIter         ....   125
 SCF integral mode      SCFMode         .... Direct
   Integral package                     .... SHARK and LIBINT hybrid scheme
 Reset frequency        DirectResetFreq ....    20
 Integral Threshold     Thresh          ....  2.500e-11 Eh
 Primitive CutOff       TCut            ....  2.500e-12 Eh

Convergence Tolerance:
 Convergence Check Mode ConvCheckMode   .... Total+1el-Energy
 Convergence forced     ConvForced      .... 0
 Energy Change          TolE            ....  1.000e-08 Eh
 1-El. energy change                    ....  1.000e-05 Eh
 Orbital Gradient       TolG            ....  1.000e-05
 Orbital Rotation angle TolX            ....  1.000e-05
 DIIS Error             TolErr          ....  5.000e-07


Diagonalization of the overlap matrix:
Smallest eigenvalue                        ... 3.684e-06
Time for diagonalization                   ...    0.025 sec
Threshold for overlap eigenvalues          ... 1.000e-08
Number of eigenvalues below threshold      ... 0
Time for construction of square roots      ...    0.326 sec
Total time needed                          ...    0.351 sec

Time for model grid setup =    1.065 sec

------------------------------
INITIAL GUESS: MODEL POTENTIAL
------------------------------
Loading Hartree-Fock densities                     ... done
Calculating cut-offs                               ... done
Initializing the effective Hamiltonian             ... done
Setting up the integral package (SHARK)            ... done
Starting the Coulomb interaction                   ... done (   1.0 sec)
Reading the grid                                   ... done
Mapping shells                                     ... done
Starting the XC term evaluation                    ... done (   0.8 sec)
  promolecular density results
     # of electrons  =    141.006593693
     EX              =   -116.410968259
     EC              =     -4.818344113
     EX+EC           =   -121.229312373
Transforming the Hamiltonian                       ... done (   0.0 sec)
Diagonalizing the Hamiltonian                      ... done (   0.0 sec)
Back transforming the eigenvectors                 ... done (   0.0 sec)
Now organizing SCF variables                       ... done
                      ------------------
                      INITIAL GUESS DONE (   3.4 sec)
                      ------------------
-------------------
DFT GRID GENERATION
-------------------

General Integration Accuracy     IntAcc      ... 4.388
Radial Grid Type                 RadialGrid  ... OptM3 with GC (2021)
Angular Grid (max. ang.)         AngularGrid ... 4 (Lebedev-302)
Angular grid pruning method      GridPruning ... 4 (adaptive)
Weight generation scheme         WeightScheme... Becke
Basis function cutoff            BFCut       ... 1.0000e-11
Integration weight cutoff        WCut        ... 1.0000e-14
Angular grids for H and He will be reduced by one unit
Partially contracted basis set               ... off
Rotationally invariant grid construction     ... off

Total number of grid points                  ...   167588
Total number of batches                      ...     2634
Average number of points per batch           ...       63
Average number of grid points per atom       ...     4788
Time for grid setup =    3.424 sec

--------------------
COSX GRID GENERATION
--------------------

GRIDX 1
-------
General Integration Accuracy     IntAcc      ... 3.816
Radial Grid Type                 RadialGrid  ... OptM3 with GC (2021)
Angular Grid (max. ang.)         AngularGrid ... 1 (Lebedev-50)
Angular grid pruning method      GridPruning ... 4 (adaptive)
Weight generation scheme         WeightScheme... Becke
Basis function cutoff            BFCut       ... 1.0000e-11
Integration weight cutoff        WCut        ... 1.0000e-14
Angular grids for H and He will be reduced by one unit
Partially contracted basis set               ... on
Rotationally invariant grid construction     ... off

Total number of grid points                  ...    21325
Total number of batches                      ...      349
Average number of points per batch           ...       61
Average number of grid points per atom       ...      609
UseSFitting                                  ... on

GRIDX 2
-------
General Integration Accuracy     IntAcc      ... 4.020
Radial Grid Type                 RadialGrid  ... OptM3 with GC (2021)
Angular Grid (max. ang.)         AngularGrid ... 2 (Lebedev-110)
Angular grid pruning method      GridPruning ... 4 (adaptive)
Weight generation scheme         WeightScheme... Becke
Basis function cutoff            BFCut       ... 1.0000e-11
Integration weight cutoff        WCut        ... 1.0000e-14
Angular grids for H and He will be reduced by one unit
Partially contracted basis set               ... on
Rotationally invariant grid construction     ... off

Total number of grid points                  ...    46429
Total number of batches                      ...      741
Average number of points per batch           ...       62
Average number of grid points per atom       ...     1327
UseSFitting                                  ... on

GRIDX 3
-------
General Integration Accuracy     IntAcc      ... 4.338
Radial Grid Type                 RadialGrid  ... OptM3 with GC (2021)
Angular Grid (max. ang.)         AngularGrid ... 3 (Lebedev-194)
Angular grid pruning method      GridPruning ... 4 (adaptive)
Weight generation scheme         WeightScheme... Becke
Basis function cutoff            BFCut       ... 1.0000e-11
Integration weight cutoff        WCut        ... 1.0000e-14
Angular grids for H and He will be reduced by one unit
Partially contracted basis set               ... on
Rotationally invariant grid construction     ... off

Total number of grid points                  ...   101544
Total number of batches                      ...     1606
Average number of points per batch           ...       63
Average number of grid points per atom       ...     2901
UseSFitting                                  ... on

Time for X-Grid setup             =    7.394 sec


--------------------
CPCM SOLVATION MODEL
--------------------
CPCM parameters:
  Epsilon                                         ...      80.4000
  Refrac                                          ...       1.3300
  Rsolv                                           ...       1.3000
  Surface type                                    ... GAUSSIAN VDW
  Epsilon function type                           ...         CPCM
Radii:
 Radius for C  used is    3.8550 Bohr (=   2.0400 Ang.)
 Radius for O  used is    3.4469 Bohr (=   1.8240 Ang.)
 Radius for N  used is    3.5149 Bohr (=   1.8600 Ang.)
 Radius for H  used is    2.4944 Bohr (=   1.3200 Ang.)
Calculating surface                               ...        done! (  0.0s)
GEPOL surface points                              ...         1834
GEPOL Volume                                      ...    2111.0214
GEPOL Surface-area                                ...    1073.6730
Calculating surface distance matrix               ...        done! (  0.0s)
Performing Cholesky decomposition & store         ...        done! (  2.3s)
Overall time for CPCM initialization              ...                 2.4s
--------------
SCF ITERATIONS
--------------
ITER       Energy         Delta-E        Max-DP      RMS-DP      [F,P]     Damp
               ***  Starting incremental Fock matrix formation  ***
  0   -878.4606469559   0.000000000000 0.11193651  0.00139417  0.3065443 0.7000
  1   -878.6605698801  -0.199922924278 0.11029656  0.00114509  0.1168138 0.7000
                               ***Turning on DIIS***
  2   -878.7406733011  -0.080103420995 0.11700264  0.00174714  0.0359051 0.0000
  3   -878.8684240958  -0.127750794689 0.12819503  0.00100539  0.0558926 0.0000
  4   -878.8946503317  -0.026226235895 0.01516925  0.00023301  0.0183447 0.0000
  5   -878.8962403707  -0.001590039002 0.02085659  0.00015589  0.0102645 0.0000
                      *** Initiating the SOSCF procedure ***
                           *** Shutting down DIIS ***
                      *** Re-Reading the Fockian *** 
                      *** Removing any level shift *** 
ITER      Energy       Delta-E        Grad      Rot      Max-DP    RMS-DP
  6   -878.89639753  -0.0001571639  0.000356  0.000356  0.006043  0.000045
               *** Restarting incremental Fock matrix formation ***
  7   -878.89637035   0.0000271800  0.000117  0.000595  0.001285  0.000024
  8   -878.89637063  -0.0000002724  0.000180  0.000352  0.000313  0.000006
  9   -878.89637257  -0.0000019409  0.000043  0.000174  0.000483  0.000006
 10   -878.89637253   0.0000000398  0.000038  0.000054  0.000589  0.000005
 11   -878.89637267  -0.0000001445  0.000008  0.000029  0.000560  0.000005
 12   -878.89637267   0.0000000016  0.000007  0.000016  0.000148  0.000002
                  ***Gradient check signals convergence***
              ***Rediagonalizing the Fockian in SOSCF/NRSCF***

               *****************************************************
               *                     SUCCESS                       *
               *           SCF CONVERGED AFTER  13 CYCLES          *
               *****************************************************

Old exchange energy                            =    -23.576525644 Eh
New exchange energy                            =    -23.576499031 Eh
Exchange energy change after final integration =      0.000026613 Eh
Total energy after final integration           =   -878.896346054 Eh
Final COS-X integration done in                =    60.263 sec

----------------
TOTAL SCF ENERGY
----------------

Total Energy       :         -878.89634605 Eh          -23915.98544 eV

Components:
Nuclear Repulsion  :         1512.44378268 Eh           41155.68764 eV
Electronic Energy  :        -2391.34012874 Eh          -65071.67308 eV
One Electron Energy:        -4176.54350837 Eh         -113649.52669 eV
Two Electron Energy:         1785.20337964 Eh           48577.85361 eV
Max COSX asymmetry :            0.00000236 Eh               0.00006 eV
CPCM Dielectric    :           -0.08640063 Eh              -2.35108 eV

Virial components:
Potential Energy   :        -1753.50132207 Eh          -47715.19677 eV
Kinetic Energy     :          874.60497602 Eh           23799.21133 eV
Virial Ratio       :            2.00490664


DFT components:
N(Alpha)           :       69.999938656699 electrons
N(Beta)            :       69.999938656699 electrons
N(Total)           :      139.999877313397 electrons
E(X)               :      -93.725872341268 Eh       
E(C)               :       -6.158956281910 Eh       
E(XC)              :      -99.884828623178 Eh       
DFET-embed. en.    :        0.000000000000 Eh       
CPCM Solvation Model Properties:
Surface-charge          :           -1.02729501
Charge-correction       :            0.00257190 Eh               0.06998 eV
Free-energy (cav+disp)  :  This term is not implemented in the current solvation scheme

---------------
SCF CONVERGENCE
---------------

  Last Energy change         ...    4.1186e-09  Tolerance :   1.0000e-08
  Last MAX-Density change    ...    1.7764e-15  Tolerance :   1.0000e-07
  Last RMS-Density change    ...    1.6842e-17  Tolerance :   5.0000e-09
  Last Orbital Gradient      ...    1.8445e-06  Tolerance :   1.0000e-05
  Last Orbital Rotation      ...    6.5774e-06  Tolerance :   1.0000e-05

             **** THE GBW FILE WAS UPDATED (HBQ-H.gbw) ****
             **** DENSITY HBQ-H.scfp WAS UPDATED ****
             **** ENERGY FILE WAS UPDATED (HBQ-H.en.tmp) ****
             **** THE GBW FILE WAS UPDATED (HBQ-H.gbw) ****
             **** DENSITY HBQ-H.scfp WAS UPDATED ****
----------------
ORBITAL ENERGIES
----------------

  NO   OCC          E(Eh)            E(eV) 
   0   2.0000     -19.201667      -522.5039 
   1   2.0000     -19.117859      -520.2234 
   2   2.0000     -14.427879      -392.6025 
   3   2.0000     -14.368841      -390.9960 
   4   2.0000     -10.338571      -281.3268 
   5   2.0000     -10.275941      -279.6226 
   6   2.0000     -10.269275      -279.4412 
   7   2.0000     -10.265831      -279.3475 
   8   2.0000     -10.229531      -278.3597 
   9   2.0000     -10.228935      -278.3435 
  10   2.0000     -10.227170      -278.2954 
  11   2.0000     -10.217407      -278.0298 
  12   2.0000     -10.215731      -277.9842 
  13   2.0000     -10.205924      -277.7173 
  14   2.0000     -10.203493      -277.6512 
  15   2.0000     -10.201618      -277.6001 
  16   2.0000     -10.200592      -277.5722 
  17   2.0000     -10.198269      -277.5090 
  18   2.0000     -10.196971      -277.4737 
  19   2.0000     -10.193302      -277.3738 
  20   2.0000      -1.134237       -30.8642 
  21   2.0000      -1.047761       -28.5110 
  22   2.0000      -1.037211       -28.2240 
  23   2.0000      -0.962791       -26.1989 
  24   2.0000      -0.908189       -24.7131 
  25   2.0000      -0.871694       -23.7200 
  26   2.0000      -0.845439       -23.0056 
  27   2.0000      -0.813083       -22.1251 
  28   2.0000      -0.780268       -21.2322 
  29   2.0000      -0.767526       -20.8855 
  30   2.0000      -0.731873       -19.9153 
  31   2.0000      -0.725733       -19.7482 
  32   2.0000      -0.697156       -18.9706 
  33   2.0000      -0.688641       -18.7389 
  34   2.0000      -0.669118       -18.2076 
  35   2.0000      -0.649633       -17.6774 
  36   2.0000      -0.608390       -16.5551 
  37   2.0000      -0.596220       -16.2240 
  38   2.0000      -0.559340       -15.2204 
  39   2.0000      -0.554179       -15.0800 
  40   2.0000      -0.548027       -14.9126 
  41   2.0000      -0.541559       -14.7366 
  42   2.0000      -0.512011       -13.9325 
  43   2.0000      -0.509566       -13.8660 
  44   2.0000      -0.502616       -13.6769 
  45   2.0000      -0.495823       -13.4920 
  46   2.0000      -0.488353       -13.2888 
  47   2.0000      -0.479971       -13.0607 
  48   2.0000      -0.468107       -12.7378 
  49   2.0000      -0.457936       -12.4611 
  50   2.0000      -0.457530       -12.4500 
  51   2.0000      -0.445847       -12.1321 
  52   2.0000      -0.433507       -11.7963 
  53   2.0000      -0.429714       -11.6931 
  54   2.0000      -0.415811       -11.3148 
  55   2.0000      -0.411738       -11.2040 
  56   2.0000      -0.409068       -11.1313 
  57   2.0000      -0.408110       -11.1052 
  58   2.0000      -0.399978       -10.8840 
  59   2.0000      -0.391551       -10.6546 
  60   2.0000      -0.382974       -10.4213 
  61   2.0000      -0.379287       -10.3209 
  62   2.0000      -0.367053        -9.9880 
  63   2.0000      -0.345175        -9.3927 
  64   2.0000      -0.337187        -9.1753 
  65   2.0000      -0.308887        -8.4053 
  66   2.0000      -0.303980        -8.2717 
  67   2.0000      -0.274861        -7.4794 
  68   2.0000      -0.265024        -7.2117 
  69   2.0000      -0.247869        -6.7448 
  70   0.0000      -0.104603        -2.8464 
  71   0.0000      -0.078107        -2.1254 
  72   0.0000      -0.042357        -1.1526 
  73   0.0000      -0.011968        -0.3257 
  74   0.0000       0.021131         0.5750 
  75   0.0000       0.023213         0.6317 
  76   0.0000       0.034138         0.9289 
  77   0.0000       0.051159         1.3921 
  78   0.0000       0.054048         1.4707 
  79   0.0000       0.064716         1.7610 
  80   0.0000       0.069334         1.8867 
  81   0.0000       0.075013         2.0412 
  82   0.0000       0.082120         2.2346 
  83   0.0000       0.087899         2.3918 
  84   0.0000       0.089785         2.4432 
  85   0.0000       0.090355         2.4587 
  86   0.0000       0.095687         2.6038 
  87   0.0000       0.101567         2.7638 
  88   0.0000       0.110926         3.0184 
  89   0.0000       0.113068         3.0767 
  90   0.0000       0.120087         3.2677 
  91   0.0000       0.123939         3.3725 
  92   0.0000       0.129715         3.5297 
  93   0.0000       0.136501         3.7144 
  94   0.0000       0.144909         3.9432 
  95   0.0000       0.148564         4.0426 
  96   0.0000       0.153475         4.1763 
  97   0.0000       0.156111         4.2480 
  98   0.0000       0.164713         4.4821 
  99   0.0000       0.167452         4.5566 
 100   0.0000       0.173431         4.7193 
 101   0.0000       0.179644         4.8884 
 102   0.0000       0.182248         4.9592 
 103   0.0000       0.188268         5.1230 
 104   0.0000       0.192784         5.2459 
 105   0.0000       0.201341         5.4788 
 106   0.0000       0.203164         5.5284 
 107   0.0000       0.206838         5.6283 
 108   0.0000       0.208985         5.6868 
 109   0.0000       0.214008         5.8234 
 110   0.0000       0.215293         5.8584 
 111   0.0000       0.228362         6.2140 
 112   0.0000       0.229835         6.2541 
 113   0.0000       0.239914         6.5284 
 114   0.0000       0.245166         6.6713 
 115   0.0000       0.249965         6.8019 
 116   0.0000       0.251470         6.8428 
 117   0.0000       0.256086         6.9685 
 118   0.0000       0.258858         7.0439 
 119   0.0000       0.267286         7.2732 
 120   0.0000       0.272594         7.4177 
 121   0.0000       0.277983         7.5643 
 122   0.0000       0.281610         7.6630 
 123   0.0000       0.287041         7.8108 
 124   0.0000       0.294484         8.0133 
 125   0.0000       0.298500         8.1226 
 126   0.0000       0.299473         8.1491 
 127   0.0000       0.301585         8.2065 
 128   0.0000       0.306311         8.3351 
 129   0.0000       0.319261         8.6875 
 130   0.0000       0.321343         8.7442 
 131   0.0000       0.327472         8.9110 
 132   0.0000       0.329707         8.9718 
 133   0.0000       0.334243         9.0952 
 134   0.0000       0.341641         9.2965 
 135   0.0000       0.344799         9.3824 
 136   0.0000       0.344998         9.3879 
 137   0.0000       0.365455         9.9445 
 138   0.0000       0.369724        10.0607 
 139   0.0000       0.374392        10.1877 
 140   0.0000       0.377864        10.2822 
 141   0.0000       0.386730        10.5235 
 142   0.0000       0.389475        10.5982 
 143   0.0000       0.390990        10.6394 
 144   0.0000       0.396057        10.7773 
 145   0.0000       0.401389        10.9223 
 146   0.0000       0.407222        11.0811 
 147   0.0000       0.411094        11.1864 
 148   0.0000       0.413126        11.2417 
 149   0.0000       0.419606        11.4181 
 150   0.0000       0.426513        11.6060 
 151   0.0000       0.437653        11.9091 
 152   0.0000       0.440497        11.9865 
 153   0.0000       0.447043        12.1646 
 154   0.0000       0.452268        12.3069 
 155   0.0000       0.455653        12.3989 
 156   0.0000       0.458113        12.4659 
 157   0.0000       0.463648        12.6165 
 158   0.0000       0.466206        12.6861 
 159   0.0000       0.473889        12.8952 
 160   0.0000       0.475371        12.9355 
 161   0.0000       0.478013        13.0074 
 162   0.0000       0.482078        13.1180 
 163   0.0000       0.485418        13.2089 
 164   0.0000       0.492137        13.3917 
 165   0.0000       0.502002        13.6602 
 166   0.0000       0.505978        13.7683 
 167   0.0000       0.509710        13.8699 
 168   0.0000       0.512302        13.9404 
 169   0.0000       0.514938        14.0122 
 170   0.0000       0.522414        14.2156 
 171   0.0000       0.527995        14.3675 
 172   0.0000       0.529670        14.4131 
 173   0.0000       0.539780        14.6882 
 174   0.0000       0.545595        14.8464 
 175   0.0000       0.566434        15.4134 
 176   0.0000       0.570818        15.5327 
 177   0.0000       0.577638        15.7183 
 178   0.0000       0.581588        15.8258 
 179   0.0000       0.586739        15.9660 
 180   0.0000       0.596187        16.2231 
 181   0.0000       0.604259        16.4427 
 182   0.0000       0.606963        16.5163 
 183   0.0000       0.616832        16.7848 
 184   0.0000       0.619034        16.8448 
 185   0.0000       0.620413        16.8823 
 186   0.0000       0.637786        17.3550 
 187   0.0000       0.638477        17.3738 
 188   0.0000       0.646079        17.5807 
 189   0.0000       0.659347        17.9417 
 190   0.0000       0.662577        18.0296 
 191   0.0000       0.672337        18.2952 
 192   0.0000       0.675767        18.3886 
 193   0.0000       0.676250        18.4017 
 194   0.0000       0.680648        18.5214 
 195   0.0000       0.689330        18.7576 
 196   0.0000       0.694184        18.8897 
 197   0.0000       0.707013        19.2388 
 198   0.0000       0.718754        19.5583 
 199   0.0000       0.726466        19.7682 
 200   0.0000       0.728877        19.8338 
 201   0.0000       0.734431        19.9849 
 202   0.0000       0.743493        20.2315 
 203   0.0000       0.744857        20.2686 
 204   0.0000       0.747741        20.3471 
 205   0.0000       0.756016        20.5722 
 206   0.0000       0.768696        20.9173 
 207   0.0000       0.771378        20.9903 
 208   0.0000       0.777542        21.1580 
 209   0.0000       0.786459        21.4006 
 210   0.0000       0.788601        21.4589 
 211   0.0000       0.796398        21.6711 
 212   0.0000       0.797578        21.7032 
 213   0.0000       0.808313        21.9953 
 214   0.0000       0.816134        22.2081 
 215   0.0000       0.826543        22.4914 
 216   0.0000       0.837049        22.7773 
 217   0.0000       0.839400        22.8412 
 218   0.0000       0.844468        22.9792 
 219   0.0000       0.849975        23.1290 
 220   0.0000       0.856394        23.3037 
 221   0.0000       0.858346        23.3568 
 222   0.0000       0.867933        23.6177 
 223   0.0000       0.883492        24.0410 
 224   0.0000       0.895693        24.3730 
 225   0.0000       0.909540        24.7499 
 226   0.0000       0.913905        24.8686 
 227   0.0000       0.928931        25.2775 
 228   0.0000       0.933467        25.4009 
 229   0.0000       0.942642        25.6506 
 230   0.0000       0.956911        26.0389 
 231   0.0000       0.960360        26.1327 
 232   0.0000       0.967870        26.3371 
 233   0.0000       0.974465        26.5165 
 234   0.0000       0.983306        26.7571 
 235   0.0000       0.997546        27.1446 
 236   0.0000       1.004691        27.3390 
 237   0.0000       1.015219        27.6255 
 238   0.0000       1.022203        27.8155 
 239   0.0000       1.034685        28.1552 
 240   0.0000       1.040124        28.3032 
 241   0.0000       1.047297        28.4984 
 242   0.0000       1.056998        28.7624 
 243   0.0000       1.063344        28.9351 
 244   0.0000       1.070708        29.1355 
 245   0.0000       1.080080        29.3905 
 246   0.0000       1.091744        29.7079 
 247   0.0000       1.098254        29.8850 
 248   0.0000       1.112613        30.2757 
 249   0.0000       1.127379        30.6776 
 250   0.0000       1.139285        31.0015 
 251   0.0000       1.150614        31.3098 
 252   0.0000       1.151661        31.3383 
 253   0.0000       1.155560        31.4444 
 254   0.0000       1.176314        32.0091 
 255   0.0000       1.176687        32.0193 
 256   0.0000       1.189262        32.3615 
 257   0.0000       1.200450        32.6659 
 258   0.0000       1.213366        33.0174 
 259   0.0000       1.216422        33.1005 
 260   0.0000       1.225678        33.3524 
 261   0.0000       1.237784        33.6818 
 262   0.0000       1.248847        33.9828 
 263   0.0000       1.256643        34.1950 
 264   0.0000       1.264577        34.4109 
 265   0.0000       1.269123        34.5346 
 266   0.0000       1.284753        34.9599 
 267   0.0000       1.290828        35.1252 
 268   0.0000       1.304732        35.5036 
 269   0.0000       1.314566        35.7712 
 270   0.0000       1.324211        36.0336 
 271   0.0000       1.332619        36.2624 
 272   0.0000       1.339434        36.4478 
 273   0.0000       1.353858        36.8403 
 274   0.0000       1.360517        37.0216 
 275   0.0000       1.384913        37.6854 
 276   0.0000       1.389776        37.8177 
 277   0.0000       1.392059        37.8799 
 278   0.0000       1.399000        38.0687 
 279   0.0000       1.410828        38.3906 
 280   0.0000       1.414504        38.4906 
 281   0.0000       1.417644        38.5761 
 282   0.0000       1.433096        38.9965 
 283   0.0000       1.442943        39.2645 
 284   0.0000       1.449021        39.4299 
 285   0.0000       1.455978        39.6192 
 286   0.0000       1.459982        39.7281 
 287   0.0000       1.468482        39.9594 
 288   0.0000       1.477068        40.1931 
 289   0.0000       1.480188        40.2780 
 290   0.0000       1.498071        40.7646 
 291   0.0000       1.515961        41.2514 
 292   0.0000       1.520520        41.3754 
 293   0.0000       1.523273        41.4504 
 294   0.0000       1.524682        41.4887 
 295   0.0000       1.533714        41.7345 
 296   0.0000       1.539373        41.8885 
 297   0.0000       1.548652        42.1410 
 298   0.0000       1.555934        42.3391 
 299   0.0000       1.556345        42.3503 
 300   0.0000       1.568197        42.6728 
 301   0.0000       1.573611        42.8201 
 302   0.0000       1.575053        42.8594 
 303   0.0000       1.584250        43.1096 
 304   0.0000       1.588018        43.2122 
 305   0.0000       1.599324        43.5198 
 306   0.0000       1.606110        43.7045 
 307   0.0000       1.617042        44.0020 
 308   0.0000       1.623133        44.1677 
 309   0.0000       1.629201        44.3328 
 310   0.0000       1.637915        44.5699 
 311   0.0000       1.644842        44.7584 
 312   0.0000       1.652708        44.9725 
 313   0.0000       1.658666        45.1346 
 314   0.0000       1.663258        45.2595 
 315   0.0000       1.678175        45.6655 
 316   0.0000       1.681091        45.7448 
 317   0.0000       1.683555        45.8119 
 318   0.0000       1.692822        46.0640 
 319   0.0000       1.702761        46.3345 
 320   0.0000       1.712245        46.5926 
 321   0.0000       1.724534        46.9270 
 322   0.0000       1.735274        47.2192 
 323   0.0000       1.745312        47.4924 
 324   0.0000       1.747302        47.5465 
 325   0.0000       1.760645        47.9096 
 326   0.0000       1.764399        48.0117 
 327   0.0000       1.773521        48.2600 
 328   0.0000       1.789485        48.6944 
 329   0.0000       1.801528        49.0221 
 330   0.0000       1.809567        49.2408 
 331   0.0000       1.822618        49.5959 
 332   0.0000       1.836783        49.9814 
 333   0.0000       1.862744        50.6878 
 334   0.0000       1.868533        50.8454 
 335   0.0000       1.878212        51.1087 
 336   0.0000       1.893713        51.5305 
 337   0.0000       1.900138        51.7054 
 338   0.0000       1.914635        52.0999 
 339   0.0000       1.925721        52.4015 
 340   0.0000       1.944363        52.9088 
 341   0.0000       1.953665        53.1619 
 342   0.0000       1.959919        53.3321 
 343   0.0000       1.976812        53.7918 
 344   0.0000       1.980670        53.8968 
 345   0.0000       2.007751        54.6337 
 346   0.0000       2.015959        54.8570 
 347   0.0000       2.030693        55.2580 
 348   0.0000       2.052777        55.8589 
 349   0.0000       2.055951        55.9453 
 350   0.0000       2.065385        56.2020 
 351   0.0000       2.071260        56.3618 
 352   0.0000       2.091519        56.9131 
 353   0.0000       2.109281        57.3964 
 354   0.0000       2.122759        57.7632 
 355   0.0000       2.142653        58.3046 
 356   0.0000       2.147809        58.4448 
 357   0.0000       2.181486        59.3612 
 358   0.0000       2.183098        59.4051 
 359   0.0000       2.193087        59.6769 
 360   0.0000       2.216316        60.3090 
 361   0.0000       2.219360        60.3919 
 362   0.0000       2.227055        60.6012 
 363   0.0000       2.248856        61.1945 
 364   0.0000       2.257847        61.4391 
 365   0.0000       2.267297        61.6963 
 366   0.0000       2.276585        61.9490 
 367   0.0000       2.282276        62.1039 
 368   0.0000       2.295725        62.4699 
 369   0.0000       2.298084        62.5341 
 370   0.0000       2.319031        63.1040 
 371   0.0000       2.323579        63.2278 
 372   0.0000       2.327474        63.3338 
 373   0.0000       2.327996        63.3480 
 374   0.0000       2.345532        63.8252 
 375   0.0000       2.353384        64.0388 
 376   0.0000       2.361623        64.2630 
 377   0.0000       2.366643        64.3996 
 378   0.0000       2.378324        64.7175 
 379   0.0000       2.391259        65.0695 
 380   0.0000       2.399984        65.3069 
 381   0.0000       2.414430        65.7000 
 382   0.0000       2.423927        65.9584 
 383   0.0000       2.427925        66.0672 
 384   0.0000       2.435852        66.2829 
 385   0.0000       2.441610        66.4396 
 386   0.0000       2.446964        66.5853 
 387   0.0000       2.476678        67.3938 
 388   0.0000       2.482470        67.5514 
 389   0.0000       2.518384        68.5287 
 390   0.0000       2.526493        68.7494 
 391   0.0000       2.544372        69.2359 
 392   0.0000       2.551424        69.4278 
 393   0.0000       2.554720        69.5175 
 394   0.0000       2.590887        70.5016 
 395   0.0000       2.605114        70.8887 
 396   0.0000       2.614754        71.1511 
 397   0.0000       2.632533        71.6349 
 398   0.0000       2.642757        71.9131 
 399   0.0000       2.660349        72.3918 
 400   0.0000       2.671222        72.6877 
 401   0.0000       2.676721        72.8373 
 402   0.0000       2.679721        72.9189 
 403   0.0000       2.687905        73.1416 
 404   0.0000       2.695337        73.3439 
 405   0.0000       2.701294        73.5059 
 406   0.0000       2.705879        73.6307 
 407   0.0000       2.713977        73.8511 
 408   0.0000       2.717224        73.9394 
 409   0.0000       2.737982        74.5043 
 410   0.0000       2.753687        74.9316 
 411   0.0000       2.761286        75.1384 
 412   0.0000       2.767796        75.3156 
 413   0.0000       2.781043        75.6760 
 414   0.0000       2.788421        75.8768 
 415   0.0000       2.798685        76.1561 
 416   0.0000       2.811050        76.4926 
 417   0.0000       2.816525        76.6415 
 418   0.0000       2.828586        76.9697 
 419   0.0000       2.835061        77.1459 
 420   0.0000       2.844157        77.3935 
 421   0.0000       2.850023        77.5531 
 422   0.0000       2.854572        77.6769 
 423   0.0000       2.875018        78.2332 
 424   0.0000       2.887929        78.5845 
 425   0.0000       2.895091        78.7794 
 426   0.0000       2.898117        78.8618 
 427   0.0000       2.909276        79.1654 
 428   0.0000       2.914712        79.3133 
 429   0.0000       2.922356        79.5213 
 430   0.0000       2.941611        80.0453 
 431   0.0000       2.947956        80.2180 
 432   0.0000       2.950621        80.2905 
 433   0.0000       2.952897        80.3524 
 434   0.0000       2.968144        80.7673 
 435   0.0000       2.983449        81.1838 
 436   0.0000       2.997533        81.5670 
 437   0.0000       3.006122        81.8007 
 438   0.0000       3.012526        81.9750 
 439   0.0000       3.023599        82.2763 
 440   0.0000       3.037972        82.6674 
 441   0.0000       3.048782        82.9616 
 442   0.0000       3.058670        83.2306 
 443   0.0000       3.070364        83.5488 
 444   0.0000       3.076023        83.7028 
 445   0.0000       3.078860        83.7800 
 446   0.0000       3.086586        83.9903 
 447   0.0000       3.092069        84.1395 
 448   0.0000       3.109160        84.6045 
 449   0.0000       3.115072        84.7654 
 450   0.0000       3.123720        85.0008 
 451   0.0000       3.129973        85.1709 
 452   0.0000       3.135192        85.3129 
 453   0.0000       3.148850        85.6846 
 454   0.0000       3.152173        85.7750 
 455   0.0000       3.158278        85.9411 
 456   0.0000       3.167795        86.2001 
 457   0.0000       3.178715        86.4972 
 458   0.0000       3.182434        86.5984 
 459   0.0000       3.191011        86.8318 
 460   0.0000       3.209064        87.3231 
 461   0.0000       3.216226        87.5180 
 462   0.0000       3.231487        87.9332 
 463   0.0000       3.237968        88.1096 
 464   0.0000       3.247748        88.3757 
 465   0.0000       3.250913        88.4618 
 466   0.0000       3.255733        88.5930 
 467   0.0000       3.260685        88.7277 
 468   0.0000       3.291691        89.5715 
 469   0.0000       3.304576        89.9221 
 470   0.0000       3.308715        90.0347 
 471   0.0000       3.317743        90.2804 
 472   0.0000       3.323883        90.4474 
 473   0.0000       3.351604        91.2018 
 474   0.0000       3.361103        91.4603 
 475   0.0000       3.366690        91.6123 
 476   0.0000       3.383166        92.0606 
 477   0.0000       3.387462        92.1775 
 478   0.0000       3.409748        92.7839 
 479   0.0000       3.415727        92.9467 
 480   0.0000       3.419368        93.0457 
 481   0.0000       3.429100        93.3105 
 482   0.0000       3.445385        93.7537 
 483   0.0000       3.457369        94.0798 
 484   0.0000       3.463330        94.2420 
 485   0.0000       3.481418        94.7342 
 486   0.0000       3.492127        95.0256 
 487   0.0000       3.496298        95.1391 
 488   0.0000       3.499892        95.2369 
 489   0.0000       3.533009        96.1381 
 490   0.0000       3.538597        96.2901 
 491   0.0000       3.562516        96.9410 
 492   0.0000       3.577524        97.3494 
 493   0.0000       3.616504        98.4101 
 494   0.0000       3.628283        98.7306 
 495   0.0000       3.642452        99.1162 
 496   0.0000       3.650261        99.3287 
 497   0.0000       3.658562        99.5545 
 498   0.0000       3.672046        99.9215 
 499   0.0000       3.703945       100.7895 
 500   0.0000       3.707191       100.8778 
 501   0.0000       3.746793       101.9554 
 502   0.0000       3.756060       102.2076 
 503   0.0000       3.761831       102.3646 
 504   0.0000       3.786611       103.0389 
 505   0.0000       3.791176       103.1631 
 506   0.0000       3.808190       103.6261 
 507   0.0000       3.841132       104.5225 
 508   0.0000       3.857391       104.9650 
 509   0.0000       3.875377       105.4544 
 510   0.0000       3.902628       106.1959 
 511   0.0000       3.924863       106.8010 
 512   0.0000       3.945013       107.3493 
 513   0.0000       3.961853       107.8075 
 514   0.0000       3.991820       108.6230 
 515   0.0000       4.035171       109.8026 
 516   0.0000       4.043104       110.0185 
 517   0.0000       4.055720       110.3618 
 518   0.0000       4.104874       111.6993 
 519   0.0000       4.134781       112.5131 
 520   0.0000       4.177765       113.6828 
 521   0.0000       4.220283       114.8397 
 522   0.0000       4.255750       115.8048 
 523   0.0000       4.313119       117.3659 
 524   0.0000       4.346147       118.2647 
 525   0.0000       4.397313       119.6570 
 526   0.0000       4.424991       120.4101 
 527   0.0000       4.464898       121.4960 
 528   0.0000       4.597733       125.1107 
 529   0.0000       4.643417       126.3538 
 530   0.0000       4.710848       128.1887 
 531   0.0000       4.772791       129.8742 
 532   0.0000       4.886229       132.9610 
 533   0.0000       4.980016       135.5131 
 534   0.0000       5.013892       136.4349 
 535   0.0000       5.078778       138.2006 
 536   0.0000       5.323294       144.8542 
 537   0.0000       5.370679       146.1436 
 538   0.0000       5.584010       151.9486 
 539   0.0000       5.618359       152.8833 
 540   0.0000       6.312645       171.7758 
 541   0.0000       6.420335       174.7062 
 542   0.0000       6.509636       177.1362 
 543   0.0000       6.555138       178.3744 
 544   0.0000       6.596337       179.4955 
 545   0.0000       6.684760       181.9016 
 546   0.0000       6.718275       182.8136 
 547   0.0000       6.821923       185.6340 
 548   0.0000       6.951619       189.1632 
 549   0.0000       7.058072       192.0599 
 550   0.0000      21.596249       587.6638 
 551   0.0000      21.886820       595.5707 
 552   0.0000      21.988171       598.3285 
 553   0.0000      22.017498       599.1266 
 554   0.0000      22.189698       603.8124 
 555   0.0000      22.204058       604.2031 
 556   0.0000      22.233949       605.0165 
 557   0.0000      22.321264       607.3925 
 558   0.0000      22.374154       608.8317 
 559   0.0000      22.387995       609.2083 
 560   0.0000      22.432421       610.4172 
 561   0.0000      22.472712       611.5136 
 562   0.0000      22.578323       614.3874 
 563   0.0000      22.704214       617.8131 
 564   0.0000      22.962453       624.8401 
 565   0.0000      23.478724       638.8886 
 566   0.0000      32.396873       881.5637 
 567   0.0000      32.445086       882.8757 
 568   0.0000      43.837683      1192.8840 
 569   0.0000      44.031029      1198.1452 

                    ********************************
                    * MULLIKEN POPULATION ANALYSIS *
                    ********************************

-----------------------
MULLIKEN ATOMIC CHARGES
-----------------------
   0 C :   -0.127860
   1 C :   -0.084031
   2 C :   -0.177724
   3 C :    0.172473
   4 C :    0.272118
   5 O :   -0.540483
   6 C :    0.236542
   7 C :   -0.215590
   8 C :   -0.251088
   9 C :   -0.016143
  10 C :    0.397837
  11 N :   -0.202330
  12 C :    0.127550
  13 C :   -0.031472
  14 C :   -0.162168
  15 C :    0.685496
  16 O :   -0.597475
  17 N :   -0.209063
  18 C :   -0.250947
  19 C :   -0.271653
  20 H :    0.158959
  21 H :    0.152048
  22 H :    0.146336
  23 H :    0.149848
  24 H :    0.142414
  25 H :    0.144784
  26 H :    0.121764
  27 H :    0.126375
  28 H :    0.124711
  29 H :    0.122015
  30 H :    0.119773
  31 H :    0.184358
  32 H :    0.151266
  33 H :    0.149226
  34 H :    0.252135
Sum of atomic charges:    1.0000000

--------------------------------
MULLIKEN REDUCED ORBITAL CHARGES
--------------------------------
  0 C s       :     3.215401  s :     3.215401
      pz      :     0.980917  p :     2.831455
      px      :     0.909806
      py      :     0.940732
      dz2     :     0.013660  d :     0.081004
      dxz     :     0.012078
      dyz     :     0.016428
      dx2y2   :     0.019122
      dxy     :     0.019716
  1 C s       :     3.189645  s :     3.189645
      pz      :     0.934676  p :     2.806591
      px      :     0.940300
      py      :     0.931615
      dz2     :     0.017101  d :     0.087795
      dxz     :     0.017518
      dyz     :     0.011009
      dx2y2   :     0.019006
      dxy     :     0.023161
  2 C s       :     3.216083  s :     3.216083
      pz      :     0.961330  p :     2.874784
      px      :     0.957672
      py      :     0.955782
      dz2     :     0.009593  d :     0.086857
      dxz     :     0.020678
      dyz     :     0.009593
      dx2y2   :     0.020556
      dxy     :     0.026436
  3 C s       :     3.189939  s :     3.189939
      pz      :     0.767989  p :     2.447936
      px      :     0.881377
      py      :     0.798571
      dz2     :     0.033736  d :     0.189651
      dxz     :     0.042877
      dyz     :     0.017640
      dx2y2   :     0.052055
      dxy     :     0.043344
  4 C s       :     3.357209  s :     3.357209
      pz      :     0.954658  p :     2.240061
      px      :     0.610007
      py      :     0.675396
      dz2     :     0.022212  d :     0.130611
      dxz     :     0.024517
      dyz     :     0.017947
      dx2y2   :     0.032955
      dxy     :     0.032980
  5 O s       :     3.860196  s :     3.860196
      pz      :     1.615499  p :     4.638113
      px      :     1.511610
      py      :     1.511005
      dz2     :     0.008066  d :     0.042174
      dxz     :     0.007052
      dyz     :     0.010504
      dx2y2   :     0.008572
      dxy     :     0.007980
  6 C s       :     3.022014  s :     3.022014
      pz      :     0.884466  p :     2.588286
      px      :     0.859983
      py      :     0.843838
      dz2     :     0.023704  d :     0.153157
      dxz     :     0.029262
      dyz     :     0.023058
      dx2y2   :     0.040289
      dxy     :     0.036843
  7 C s       :     3.273307  s :     3.273307
      pz      :     0.932323  p :     2.854115
      px      :     0.982021
      py      :     0.939771
      dz2     :     0.008606  d :     0.088168
      dxz     :     0.020182
      dyz     :     0.012233
      dx2y2   :     0.029453
      dxy     :     0.017693
  8 C s       :     3.308714  s :     3.308714
      pz      :     0.963967  p :     2.855914
      px      :     0.928111
      py      :     0.963837
      dz2     :     0.015164  d :     0.086460
      dxz     :     0.010032
      dyz     :     0.018907
      dx2y2   :     0.026535
      dxy     :     0.015821
  9 C s       :     3.067069  s :     3.067069
      pz      :     0.885986  p :     2.782805
      px      :     1.081793
      py      :     0.815025
      dz2     :     0.029460  d :     0.166269
      dxz     :     0.034832
      dyz     :     0.017983
      dx2y2   :     0.047346
      dxy     :     0.036648
 10 C s       :     2.976707  s :     2.976707
      pz      :     0.850000  p :     2.478535
      px      :     0.837735
      py      :     0.790800
      dz2     :     0.025797  d :     0.146921
      dxz     :     0.023708
      dyz     :     0.024014
      dx2y2   :     0.040657
      dxy     :     0.032745
 11 N s       :     3.457879  s :     3.457879
      pz      :     1.299075  p :     3.667284
      px      :     1.126520
      py      :     1.241689
      dz2     :     0.013464  d :     0.077168
      dxz     :     0.010398
      dyz     :     0.016263
      dx2y2   :     0.020867
      dxy     :     0.016176
 12 C s       :     3.127152  s :     3.127152
      pz      :     0.912664  p :     2.642819
      px      :     0.874859
      py      :     0.855296
      dz2     :     0.010578  d :     0.102479
      dxz     :     0.026216
      dyz     :     0.012224
      dx2y2   :     0.029917
      dxy     :     0.023544
 13 C s       :     3.133749  s :     3.133749
      pz      :     0.945455  p :     2.819417
      px      :     0.920502
      py      :     0.953460
      dz2     :     0.013286  d :     0.078307
      dxz     :     0.016931
      dyz     :     0.010610
      dx2y2   :     0.017980
      dxy     :     0.019499
 14 C s       :     3.239415  s :     3.239415
      pz      :     0.900077  p :     2.834995
      px      :     0.998763
      py      :     0.936155
      dz2     :     0.015241  d :     0.087759
      dxz     :     0.014445
      dyz     :     0.016085
      dx2y2   :     0.021959
      dxy     :     0.020029
 15 C s       :     2.811698  s :     2.811698
      pz      :     0.717710  p :     2.207483
      px      :     0.706520
      py      :     0.783252
      dz2     :     0.066973  d :     0.295323
      dxz     :     0.078995
      dyz     :     0.084815
      dx2y2   :     0.039823
      dxy     :     0.024718
 16 O s       :     3.879649  s :     3.879649
      pz      :     1.428735  p :     4.684029
      px      :     1.644492
      py      :     1.610802
      dz2     :     0.011875  d :     0.033797
      dxz     :     0.009741
      dyz     :     0.009462
      dx2y2   :     0.001218
      dxy     :     0.001500
 17 N s       :     3.439487  s :     3.439487
      pz      :     1.090646  p :     3.678472
      px      :     1.259685
      py      :     1.328141
      dz2     :     0.022037  d :     0.091104
      dxz     :     0.023189
      dyz     :     0.021087
      dx2y2   :     0.013547
      dxy     :     0.011243
 18 C s       :     3.249529  s :     3.249529
      pz      :     1.100612  p :     2.938183
      px      :     0.890278
      py      :     0.947293
      dz2     :     0.009116  d :     0.063236
      dxz     :     0.008917
      dyz     :     0.007818
      dx2y2   :     0.027053
      dxy     :     0.010331
 19 C s       :     3.252198  s :     3.252198
      pz      :     0.785723  p :     2.954394
      px      :     1.068343
      py      :     1.100327
      dz2     :     0.014405  d :     0.065062
      dxz     :     0.019556
      dyz     :     0.018304
      dx2y2   :     0.005078
      dxy     :     0.007719
 20 H s       :     0.816644  s :     0.816644
      pz      :     0.003666  p :     0.024397
      px      :     0.009062
      py      :     0.011670
 21 H s       :     0.824912  s :     0.824912
      pz      :     0.007861  p :     0.023040
      px      :     0.010540
      py      :     0.004639
 22 H s       :     0.830716  s :     0.830716
      pz      :     0.004090  p :     0.022948
[...]
     65      -0.000011  -0.000000  -0.001726
     66       0.000024  -0.000034  -0.000524
     67       0.000048  -0.000068  -0.000197
     68       0.000023  -0.000032  -0.000238
     69      -0.000000   0.000002   0.000209
     70       0.000001  -0.000001  -0.000109
     71      -0.000005   0.000013   0.000751
     72       0.000003  -0.000008   0.000077
     73       0.000020  -0.000046  -0.001333
     74       0.000006  -0.000014  -0.000383
     75      -0.000013   0.000030   0.001336
     76      -0.000005   0.000009  -0.000166
     77       0.000007  -0.000016  -0.000438
     78       0.000025   0.000099   0.000095
     79      -0.000116  -0.000184  -0.000604
     80      -0.000086  -0.000158  -0.000429
     81       0.000196  -0.000377  -0.001081
     82      -0.000002   0.000003  -0.000550
     83      -0.000064   0.000134   0.000156
     84       0.000612  -0.000166   0.000286
     85       0.000720  -0.000189   0.000909
     86       0.000247  -0.000065   0.000422
     87       0.000747   0.000082  -0.000095
     88      -0.001753  -0.000023  -0.000306
     89      -0.001436  -0.000041  -0.000171
     90      -0.004352  -0.000208   0.001908
     91       0.000323   0.000138  -0.000364
     92       0.001832   0.000176  -0.000942
     93      -0.213699   0.283556   0.002262
     94       0.425184  -0.550999  -0.005521
     95       0.376025  -0.489867  -0.004705
     96      -0.491090  -0.383076   0.002152
     97      -0.569155  -0.437983   0.000810
     98      -0.202043  -0.153535  -0.000238
     99      -0.125906  -0.068949  -0.000801
    100       0.005976   0.003992  -0.000100
    101       0.050847   0.028346   0.000223
    102       0.003837  -0.004352   0.914169
    103      -0.002844   0.003736  -0.046338
    104      -0.003520   0.004320  -0.395610


-----------
IR SPECTRUM
-----------

 Mode   freq       eps      Int      T**2         TX        TY        TZ
       cm**-1   L/(mol*cm) km/mol    a.u.
----------------------------------------------------------------------------
  6:     29.25   0.000534    2.70  0.005698  (-0.056218 -0.049634  0.008570)
  7:     33.82   0.000373    1.89  0.003446  (-0.027937 -0.051599 -0.001625)
  8:     54.18   0.000096    0.48  0.000552  (-0.011989  0.005202 -0.019518)
  9:     63.33   0.000109    0.55  0.000535  ( 0.002250  0.013440 -0.018682)
 10:     89.79   0.000421    2.13  0.001462  ( 0.029467  0.005227  0.023796)
 11:    108.02   0.000545    2.76  0.001575  ( 0.002025 -0.026379  0.029581)
 12:    111.42   0.001106    5.59  0.003096  (-0.018645  0.043862 -0.028716)
 13:    130.15   0.000981    4.96  0.002353  (-0.033929 -0.032004  0.013314)
 14:    199.75   0.000498    2.52  0.000779  ( 0.023721  0.000373 -0.014688)
 15:    220.97   0.001513    7.65  0.002137  (-0.042471  0.012131  0.013630)
 16:    232.66   0.002176   11.00  0.002918  (-0.000090  0.043266 -0.032348)
 17:    236.23   0.002528   12.78  0.003339  ( 0.045620  0.028635  0.020935)
 18:    247.91   0.001905    9.63  0.002398  ( 0.048573 -0.005544  0.002730)
 19:    291.90   0.001016    5.13  0.001086  (-0.022782  0.008301 -0.022314)
 20:    350.45   0.001642    8.30  0.001462  (-0.032693  0.019257  0.004721)
 21:    387.64   0.003595   18.17  0.002894  (-0.038503  0.030461  0.021989)
 22:    407.00   0.001604    8.11  0.001230  ( 0.014075 -0.013183  0.029293)
 23:    412.44   0.001040    5.25  0.000787  ( 0.012780  0.020939  0.013601)
 24:    469.12   0.003106   15.69  0.002066  ( 0.035757 -0.025532  0.011637)
 25:    484.94   0.000251    1.27  0.000162  (-0.005628  0.009023 -0.006964)
 26:    506.63   0.000872    4.40  0.000537  (-0.019994 -0.005703  0.010225)
 27:    514.77   0.000913    4.62  0.000554  ( 0.019945  0.011238  0.005450)
 28:    520.45   0.001633    8.25  0.000979  ( 0.002885 -0.020357  0.023585)
 29:    563.31   0.000200    1.01  0.000111  ( 0.004632  0.009309 -0.001624)
 30:    574.04   0.000914    4.62  0.000497  (-0.012413  0.001125 -0.018486)
 31:    610.27   0.001594    8.06  0.000815  (-0.004990 -0.009575 -0.026430)
 32:    623.42   0.000332    1.68  0.000166  ( 0.004622  0.009232 -0.007731)
 33:    653.74   0.001536    7.76  0.000733  ( 0.010945 -0.012528 -0.021365)
 34:    705.35   0.002511   12.69  0.001111  ( 0.017724 -0.005800 -0.027623)
 35:    728.78   0.013745   69.46  0.005886  (-0.039606  0.048145 -0.044712)
 36:    732.01   0.006783   34.28  0.002892  (-0.024496  0.020841 -0.043095)
 37:    745.14   0.005884   29.73  0.002464  (-0.038166 -0.030698  0.008070)
 38:    777.12   0.013840   69.94  0.005558  (-0.020268 -0.026395  0.066709)
 39:    793.55   0.003023   15.28  0.001189  ( 0.025280 -0.020221  0.011860)
 40:    820.01   0.013402   67.73  0.005100  (-0.062877  0.026103  0.021573)
 41:    824.93   0.005158   26.07  0.001951  ( 0.039598 -0.011818 -0.015612)
 42:    848.37   0.018216   92.06  0.006701  (-0.013953  0.040022 -0.070031)
 43:    875.52   0.011816   59.71  0.004211  (-0.037609  0.037418 -0.037375)
 44:    879.02   0.001845    9.33  0.000655  ( 0.007969 -0.017709  0.016674)
 45:    893.95   0.000768    3.88  0.000268  ( 0.007981 -0.007844  0.011945)
 46:    927.16   0.000154    0.78  0.000052  ( 0.002111 -0.000826  0.006845)
 47:    969.64   0.018095   91.44  0.005823  ( 0.068932 -0.029999  0.013108)
 48:    989.67   0.000723    3.66  0.000228  (-0.002877  0.006954 -0.013095)
 49:    993.02   0.001989   10.05  0.000625  ( 0.005832 -0.012839  0.020647)
 50:    999.44   0.000031    0.16  0.000010  (-0.000552 -0.001461  0.002674)
 51:   1023.46   0.000029    0.14  0.000009  (-0.000295  0.001046 -0.002745)
 52:   1031.36   0.036377  183.83  0.011007  (-0.085523  0.054830  0.026195)
 53:   1043.70   0.023959  121.08  0.007164  (-0.060704  0.054688  0.022089)
 54:   1075.44   0.005050   25.52  0.001465  (-0.031274  0.017928 -0.012880)
 55:   1090.33   0.007829   39.56  0.002241  (-0.044992  0.010764  0.010025)
 56:   1112.72   0.016277   82.26  0.004565  ( 0.060901 -0.018116 -0.022974)
 57:   1125.15   0.032667  165.09  0.009060  ( 0.061108 -0.057268 -0.045239)
 58:   1131.71   0.127131  642.47  0.035056  ( 0.129455 -0.111880 -0.076027)
 59:   1158.65   0.001867    9.44  0.000503  (-0.018742 -0.001750  0.012190)
 60:   1171.96   0.002213   11.18  0.000589  (-0.018357  0.015794  0.001712)
 61:   1180.71   0.002466   12.46  0.000652  ( 0.015536  0.018382  0.008509)
 62:   1193.47   0.002520   12.74  0.000659  ( 0.021133 -0.014575 -0.000004)
 63:   1217.51   0.002522   12.74  0.000646  (-0.018027  0.017582  0.003492)
 64:   1240.92   0.006581   33.26  0.001655  (-0.020650  0.031830  0.014673)
 65:   1250.78   0.034320  173.44  0.008563  (-0.068621  0.057060  0.024454)
 66:   1265.65   0.004265   21.55  0.001052  (-0.013444 -0.021793 -0.019898)
 67:   1271.38   0.001887    9.53  0.000463  ( 0.009625 -0.004652 -0.018675)
 68:   1322.47   0.005974   30.19  0.001410  ( 0.016841  0.026991  0.019941)
 69:   1350.93   0.010873   54.95  0.002512  ( 0.049478  0.003351 -0.007232)
 70:   1364.21   0.003968   20.05  0.000908  ( 0.019084 -0.015805 -0.017138)
 71:   1379.83   0.030622  154.75  0.006926  (-0.003997  0.074886  0.036077)
 72:   1416.23   0.032982  166.68  0.007268  (-0.070777  0.038380  0.028021)
 73:   1440.81   0.002499   12.63  0.000541  (-0.003362 -0.013992  0.018282)
 74:   1442.12   0.007252   36.65  0.001569  (-0.011303 -0.030830 -0.022158)
 75:   1456.72   0.001838    9.29  0.000394  ( 0.002214 -0.019712 -0.000460)
 76:   1463.21   0.009880   49.93  0.002107  (-0.037020  0.008016 -0.025929)
 77:   1477.05   0.010739   54.27  0.002269  (-0.033527  0.015930  0.029851)
 78:   1478.91   0.000594    3.00  0.000125  (-0.008617  0.000685  0.007120)
 79:   1485.80   0.006716   33.94  0.001411  (-0.021303 -0.029232  0.010114)
 80:   1491.00   0.002758   13.94  0.000577  ( 0.020439 -0.001911  0.012487)
 81:   1509.45   0.011453   57.88  0.002368  (-0.028544 -0.036290 -0.015364)
 82:   1522.75   0.018206   92.00  0.003731  ( 0.053622 -0.029156  0.002366)
 83:   1542.83   0.007754   39.18  0.001568  (-0.018658 -0.029976 -0.017934)
 84:   1602.53   0.007862   39.73  0.001531  ( 0.016356  0.029884  0.019244)
 85:   1620.20   0.013571   68.58  0.002614  ( 0.022563 -0.035875 -0.028596)
 86:   1638.35   0.026445  133.64  0.005037  ( 0.029184  0.059745  0.024820)
 87:   1653.66   0.005423   27.40  0.001023  ( 0.004797 -0.015676 -0.027469)
 88:   1669.30   0.022943  115.94  0.004289  ( 0.054744  0.035519  0.005520)
 89:   1745.25   0.197213  996.63  0.035263  ( 0.005826  0.043553  0.182571)
 90:   3036.77   0.005797   29.30  0.000596  (-0.019102  0.003320 -0.014827)
 91:   3040.88   0.015504   78.35  0.001591  ( 0.015759 -0.022845 -0.028650)
 92:   3090.26   0.010652   53.83  0.001076  ( 0.023376  0.022069 -0.006501)
 93:   3094.15   0.000372    1.88  0.000038  (-0.003666  0.002268  0.004351)
 94:   3172.66   0.000634    3.20  0.000062  (-0.002603  0.002591 -0.006990)
 95:   3182.37   0.001100    5.56  0.000108  ( 0.006278 -0.008230  0.000835)
 96:   3189.49   0.000083    0.42  0.000008  (-0.002602  0.000494  0.001065)
 97:   3191.91   0.000317    1.60  0.000031  (-0.005252 -0.001373  0.001215)
 98:   3199.51   0.000024    0.12  0.000002  ( 0.001099  0.001018  0.000359)
 99:   3202.98   0.001899    9.60  0.000185  (-0.003099 -0.011610 -0.006373)
100:   3205.68   0.000970    4.90  0.000094  (-0.004134  0.006648  0.005760)
101:   3213.79   0.000139    0.70  0.000013  ( 0.003496  0.000802 -0.000786)
102:   3229.35   0.000640    3.23  0.000062  (-0.004639  0.004332  0.004641)
103:   3239.55   0.001888    9.54  0.000182  (-0.001812 -0.011373 -0.007018)
104:   3480.27   0.104509  528.14  0.009371  ( 0.092232 -0.000226 -0.029395)

* The epsilon (eps) is given for a Dirac delta lineshape.
** The dipole moment derivative (T) already includes vibrational overlap.

The first frequency considered to be a vibration is 6
The total number of vibrations considered is 99


--------------------------
THERMOCHEMISTRY AT 298.15K
--------------------------

Temperature         ... 298.15 K
Pressure            ... 1.00 atm
Total Mass          ... 267.31 AMU

Throughout the following assumptions are being made:
  (1) The electronic state is orbitally nondegenerate
  (2) There are no thermally accessible electronically excited states
  (3) Hindered rotations indicated by low frequency modes are not
      treated as such but are treated as vibrations and this may
      cause some error
  (4) All equations used are the standard statistical mechanics
      equations for an ideal gas
  (5) All vibrations are strictly harmonic

freq.      29.25  E(vib)   ...       0.55 
freq.      33.82  E(vib)   ...       0.55 
freq.      54.18  E(vib)   ...       0.52 
freq.      63.33  E(vib)   ...       0.51 
freq.      89.79  E(vib)   ...       0.47 
freq.     108.02  E(vib)   ...       0.45 
freq.     111.42  E(vib)   ...       0.45 
freq.     130.15  E(vib)   ...       0.43 
freq.     199.75  E(vib)   ...       0.35 
freq.     220.97  E(vib)   ...       0.33 
freq.     232.66  E(vib)   ...       0.32 
freq.     236.23  E(vib)   ...       0.32 
freq.     247.91  E(vib)   ...       0.31 
freq.     291.90  E(vib)   ...       0.27 
freq.     350.45  E(vib)   ...       0.23 
freq.     387.64  E(vib)   ...       0.20 
freq.     407.00  E(vib)   ...       0.19 
freq.     412.44  E(vib)   ...       0.19 
freq.     469.12  E(vib)   ...       0.16 
freq.     484.94  E(vib)   ...       0.15 
freq.     506.63  E(vib)   ...       0.14 
freq.     514.77  E(vib)   ...       0.13 
freq.     520.45  E(vib)   ...       0.13 
freq.     563.31  E(vib)   ...       0.11 
freq.     574.04  E(vib)   ...       0.11 
freq.     610.27  E(vib)   ...       0.10 
freq.     623.42  E(vib)   ...       0.09 
freq.     653.74  E(vib)   ...       0.08 
freq.     705.35  E(vib)   ...       0.07 
freq.     728.78  E(vib)   ...       0.06 
freq.     732.01  E(vib)   ...       0.06 
freq.     745.14  E(vib)   ...       0.06 
freq.     777.12  E(vib)   ...       0.05 
freq.     793.55  E(vib)   ...       0.05 
freq.     820.01  E(vib)   ...       0.05 
freq.     824.93  E(vib)   ...       0.04 
freq.     848.37  E(vib)   ...       0.04 
freq.     875.52  E(vib)   ...       0.04 
freq.     879.02  E(vib)   ...       0.04 
freq.     893.95  E(vib)   ...       0.03 
freq.     927.16  E(vib)   ...       0.03 
freq.     969.64  E(vib)   ...       0.03 
freq.     989.67  E(vib)   ...       0.02 
freq.     993.02  E(vib)   ...       0.02 
freq.     999.44  E(vib)   ...       0.02 
freq.    1023.46  E(vib)   ...       0.02 
freq.    1031.36  E(vib)   ...       0.02 
freq.    1043.70  E(vib)   ...       0.02 
freq.    1075.44  E(vib)   ...       0.02 
freq.    1090.33  E(vib)   ...       0.02 
freq.    1112.72  E(vib)   ...       0.01 
freq.    1125.15  E(vib)   ...       0.01 
freq.    1131.71  E(vib)   ...       0.01 
freq.    1158.65  E(vib)   ...       0.01 
freq.    1171.96  E(vib)   ...       0.01 
freq.    1180.71  E(vib)   ...       0.01 
freq.    1193.47  E(vib)   ...       0.01 
freq.    1217.51  E(vib)   ...       0.01 
freq.    1240.92  E(vib)   ...       0.01 
freq.    1250.78  E(vib)   ...       0.01 
freq.    1265.65  E(vib)   ...       0.01 
freq.    1271.38  E(vib)   ...       0.01 
freq.    1322.47  E(vib)   ...       0.01 
freq.    1350.93  E(vib)   ...       0.01 
freq.    1364.21  E(vib)   ...       0.01 
freq.    1379.83  E(vib)   ...       0.01 
freq.    1416.23  E(vib)   ...       0.00 
freq.    1440.81  E(vib)   ...       0.00 
freq.    1442.12  E(vib)   ...       0.00 
freq.    1456.72  E(vib)   ...       0.00 
freq.    1463.21  E(vib)   ...       0.00 
freq.    1477.05  E(vib)   ...       0.00 
freq.    1478.91  E(vib)   ...       0.00 
freq.    1485.80  E(vib)   ...       0.00 
freq.    1491.00  E(vib)   ...       0.00 
freq.    1509.45  E(vib)   ...       0.00 
freq.    1522.75  E(vib)   ...       0.00 
freq.    1542.83  E(vib)   ...       0.00 
freq.    1602.53  E(vib)   ...       0.00 
freq.    1620.20  E(vib)   ...       0.00 
freq.    1638.35  E(vib)   ...       0.00 
freq.    1653.66  E(vib)   ...       0.00 
freq.    1669.30  E(vib)   ...       0.00 
freq.    1745.25  E(vib)   ...       0.00 
freq.    3036.77  E(vib)   ...       0.00 
freq.    3040.88  E(vib)   ...       0.00 
freq.    3090.26  E(vib)   ...       0.00 
freq.    3094.15  E(vib)   ...       0.00 
freq.    3172.66  E(vib)   ...       0.00 
freq.    3182.37  E(vib)   ...       0.00 
freq.    3189.49  E(vib)   ...       0.00 
freq.    3191.91  E(vib)   ...       0.00 
freq.    3199.51  E(vib)   ...       0.00 
freq.    3202.98  E(vib)   ...       0.00 
freq.    3205.68  E(vib)   ...       0.00 
freq.    3213.79  E(vib)   ...       0.00 
freq.    3229.35  E(vib)   ...       0.00 
freq.    3239.55  E(vib)   ...       0.00 
freq.    3480.27  E(vib)   ...       0.00 

------------
INNER ENERGY
------------

The inner energy is: U= E(el) + E(ZPE) + E(vib) + E(rot) + E(trans)
    E(el)   - is the total energy from the electronic structure calculation
              = E(kin-el) + E(nuc-el) + E(el-el) + E(nuc-nuc)
    E(ZPE)  - the the zero temperature vibrational energy from the frequency calculation
    E(vib)  - the the finite temperature correction to E(ZPE) due to population
              of excited vibrational states
    E(rot)  - is the rotational thermal energy
    E(trans)- is the translational thermal energy

Summary of contributions to the inner energy U:
Electronic energy                ...   -878.89634605 Eh
Zero point energy                ...      0.28262581 Eh     177.35 kcal/mol
Thermal vibrational correction   ...      0.01411216 Eh       8.86 kcal/mol
Thermal rotational correction    ...      0.00141627 Eh       0.89 kcal/mol
Thermal translational correction ...      0.00141627 Eh       0.89 kcal/mol
-----------------------------------------------------------------------
Total thermal energy                   -878.59677555 Eh


Summary of corrections to the electronic energy:
(perhaps to be used in another calculation)
Total thermal correction                  0.01694470 Eh      10.63 kcal/mol
Non-thermal (ZPE) correction              0.28262581 Eh     177.35 kcal/mol
-----------------------------------------------------------------------
Total correction                          0.29957051 Eh     187.98 kcal/mol


--------
ENTHALPY
--------

The enthalpy is H = U + kB*T
                kB is Boltzmann's constant
Total free energy                 ...   -878.59677555 Eh 
Thermal Enthalpy correction       ...      0.00094421 Eh       0.59 kcal/mol
-----------------------------------------------------------------------
Total Enthalpy                    ...   -878.59583134 Eh


Note: Only C1 symmetry has been detected, increase convergence thresholds 
      if your molecule has a higher symmetry. Symmetry factor of 1.0 is   
      used for the rotational entropy correction. 
 

Note: Rotational entropy computed according to Herzberg 
Infrared and Raman Spectra, Chapter V,1, Van Nostrand Reinhold, 1945 
Point Group:  C1, Symmetry Number:   1  
Rotational constants in cm-1:     0.016846     0.009580     0.006527 

Vibrational entropy computed according to the QRRHO of S. Grimme
Chem.Eur.J. 2012 18 9955


-------
ENTROPY
-------

The entropy contributions are T*S = T*(S(el)+S(vib)+S(rot)+S(trans))
     S(el)   - electronic entropy
     S(vib)  - vibrational entropy
     S(rot)  - rotational entropy
     S(trans)- translational entropy
The entropies will be listed as multiplied by the temperature to get
units of energy

Electronic entropy                ...      0.00000000 Eh      0.00 kcal/mol
Vibrational entropy               ...      0.02476033 Eh     15.54 kcal/mol
Rotational entropy                ...      0.01600842 Eh     10.05 kcal/mol
Translational entropy             ...      0.02026376 Eh     12.72 kcal/mol
-----------------------------------------------------------------------
Final entropy term                ...      0.06103251 Eh     38.30 kcal/mol

In case the symmetry of your molecule has not been determined correctly
or in case you have a reason to use a different symmetry number we print 
out the resulting rotational entropy values for sn=1,12 :
 --------------------------------------------------------
|  sn= 1 | S(rot)=       0.01600842 Eh     10.05 kcal/mol|
|  sn= 2 | S(rot)=       0.01535396 Eh      9.63 kcal/mol|
|  sn= 3 | S(rot)=       0.01497113 Eh      9.39 kcal/mol|
|  sn= 4 | S(rot)=       0.01469951 Eh      9.22 kcal/mol|
|  sn= 5 | S(rot)=       0.01448882 Eh      9.09 kcal/mol|
|  sn= 6 | S(rot)=       0.01431667 Eh      8.98 kcal/mol|
|  sn= 7 | S(rot)=       0.01417113 Eh      8.89 kcal/mol|
|  sn= 8 | S(rot)=       0.01404505 Eh      8.81 kcal/mol|
|  sn= 9 | S(rot)=       0.01393384 Eh      8.74 kcal/mol|
|  sn=10 | S(rot)=       0.01383436 Eh      8.68 kcal/mol|
|  sn=11 | S(rot)=       0.01374437 Eh      8.62 kcal/mol|
|  sn=12 | S(rot)=       0.01366222 Eh      8.57 kcal/mol|
 --------------------------------------------------------


-------------------
GIBBS FREE ENERGY
-------------------

The Gibbs free energy is G = H - T*S

Total enthalpy                    ...   -878.59583134 Eh 
Total entropy correction          ...     -0.06103251 Eh    -38.30 kcal/mol
-----------------------------------------------------------------------
Final Gibbs free energy         ...   -878.65686385 Eh

For completeness - the Gibbs free energy minus the electronic energy
G-E(el)                           ...      0.23948220 Eh    150.28 kcal/mol


Timings for individual modules:

Sum of individual times         ...     6121.106 sec (= 102.018 min)
GTO integral calculation        ...       13.325 sec (=   0.222 min)   0.2 %
SCF iterations                  ...      502.689 sec (=   8.378 min)   8.2 %
Analytical frequency calculation...     5605.092 sec (=  93.418 min)  91.6 %
                             ****ORCA TERMINATED NORMALLY****
TOTAL RUN TIME: 0 days 1 hours 42 minutes 11 seconds 802 msec
