
                                 *****************
                                 * O   R   C   A *
                                 *****************

                                            #,                                       
                                            ###                                      
                                            ####                                     
                                            #####                                    
                                            ######                                   
                                           ########,                                 
                                     ,,################,,,,,                         
                               ,,#################################,,                 
                          ,,##########################################,,             
                       ,#########################################, ''#####,          
                    ,#############################################,,   '####,        
                  ,##################################################,,,,####,       
                ,###########''''           ''''###############################       
              ,#####''   ,,,,##########,,,,          '''####'''          '####       
            ,##' ,,,,###########################,,,                        '##       
           ' ,,###''''                  '''############,,,                           
         ,,##''                                '''############,,,,        ,,,,,,###''
      ,#''                                            '''#######################'''  
     '                                                          ''''####''''         
             ,#######,   #######,   ,#######,      ##                                
            ,#'     '#,  ##    ##  ,#'     '#,    #''#        ######   ,####,        
            ##       ##  ##   ,#'  ##            #'  '#       #        #'  '#        
            ##       ##  #######   ##           ,######,      #####,   #    #        
            '#,     ,#'  ##    ##  '#,     ,#' ,#      #,         ##   #,  ,#        
             '#######'   ##     ##  '#######'  #'      '#     #####' # '####'        



                  #######################################################
                  #                        -***-                        #
                  #          Department of theory and spectroscopy      #
                  #    Directorship and core code : Frank Neese         #
                  #        Max Planck Institute fuer Kohlenforschung    #
                  #                Kaiser Wilhelm Platz 1               #
                  #                 D-45470 Muelheim/Ruhr               #
                  #                      Germany                        #
                  #                                                     #
                  #                  All rights reserved                #
                  #                        -***-                        #
                  #######################################################


                         Program Version 5.0.4 -  RELEASE  -


 With contributions from (in alphabetic order):
   Daniel Aravena         : Magnetic Suceptibility
   Michael Atanasov       : Ab Initio Ligand Field Theory (pilot matlab implementation)
   Alexander A. Auer      : GIAO ZORA, VPT2 properties, NMR spectrum
   Ute Becker             : Parallelization
   Giovanni Bistoni       : ED, misc. LED, open-shell LED, HFLD
   Martin Brehm           : Molecular dynamics
   Dmytro Bykov           : SCF Hessian
   Vijay G. Chilkuri      : MRCI spin determinant printing, contributions to CSF-ICE
   Dipayan Datta          : RHF DLPNO-CCSD density
   Achintya Kumar Dutta   : EOM-CC, STEOM-CC
   Dmitry Ganyushin       : Spin-Orbit,Spin-Spin,Magnetic field MRCI
   Miquel Garcia          : C-PCM and meta-GGA Hessian, CC/C-PCM, Gaussian charge scheme
   Yang Guo               : DLPNO-NEVPT2, F12-NEVPT2, CIM, IAO-localization
   Andreas Hansen         : Spin unrestricted coupled pair/coupled cluster methods
   Benjamin Helmich-Paris : MC-RPA, TRAH-SCF, COSX integrals
   Lee Huntington         : MR-EOM, pCC
   Robert Izsak           : Overlap fitted RIJCOSX, COSX-SCS-MP3, EOM
   Marcus Kettner         : VPT2
   Christian Kollmar      : KDIIS, OOCD, Brueckner-CCSD(T), CCSD density, CASPT2, CASPT2-K
   Simone Kossmann        : Meta GGA functionals, TD-DFT gradient, OOMP2, MP2 Hessian
   Martin Krupicka        : Initial AUTO-CI
   Lucas Lang             : DCDCAS
   Marvin Lechner         : AUTO-CI (C++ implementation), FIC-MRCC
   Dagmar Lenk            : GEPOL surface, SMD
   Dimitrios Liakos       : Extrapolation schemes; Compound Job, initial MDCI parallelization
   Dimitrios Manganas     : Further ROCIS development; embedding schemes
   Dimitrios Pantazis     : SARC Basis sets
   Anastasios Papadopoulos: AUTO-CI, single reference methods and gradients
   Taras Petrenko         : DFT Hessian,TD-DFT gradient, ASA, ECA, R-Raman, ABS, FL, XAS/XES, NRVS
   Peter Pinski           : DLPNO-MP2, DLPNO-MP2 Gradient
   Christoph Reimann      : Effective Core Potentials
   Marius Retegan         : Local ZFS, SOC
   Christoph Riplinger    : Optimizer, TS searches, QM/MM, DLPNO-CCSD(T), (RO)-DLPNO pert. Triples
   Tobias Risthaus        : Range-separated hybrids, TD-DFT gradient, RPA, STAB
   Michael Roemelt        : Original ROCIS implementation
   Masaaki Saitow         : Open-shell DLPNO-CCSD energy and density
   Barbara Sandhoefer     : DKH picture change effects
   Avijit Sen             : IP-ROCIS
   Kantharuban Sivalingam : CASSCF convergence, NEVPT2, FIC-MRCI
   Bernardo de Souza      : ESD, SOC TD-DFT
   Georgi Stoychev        : AutoAux, RI-MP2 NMR, DLPNO-MP2 response
   Willem Van den Heuvel  : Paramagnetic NMR
   Boris Wezisla          : Elementary symmetry handling
   Frank Wennmohs         : Technical directorship


 We gratefully acknowledge several colleagues who have allowed us to
 interface, adapt or use parts of their codes:
   Stefan Grimme, W. Hujo, H. Kruse, P. Pracht,  : VdW corrections, initial TS optimization,
                  C. Bannwarth, S. Ehlert          DFT functionals, gCP, sTDA/sTD-DF
   Ed Valeev, F. Pavosevic, A. Kumar             : LibInt (2-el integral package), F12 methods
   Garnet Chan, S. Sharma, J. Yang, R. Olivares  : DMRG
   Ulf Ekstrom                                   : XCFun DFT Library
   Mihaly Kallay                                 : mrcc  (arbitrary order and MRCC methods)
   Jiri Pittner, Ondrej Demel                    : Mk-CCSD
   Frank Weinhold                                : gennbo (NPA and NBO analysis)
   Christopher J. Cramer and Donald G. Truhlar   : smd solvation model
   Lars Goerigk                                  : TD-DFT with DH, B97 family of functionals
   V. Asgeirsson, H. Jonsson                     : NEB implementation
   FAccTs GmbH                                   : IRC, NEB, NEB-TS, DLPNO-Multilevel, CI-OPT
                                                   MM, QMMM, 2- and 3-layer-ONIOM, Crystal-QMMM,
                                                   LR-CPCM, SF, NACMEs, symmetry and pop. for TD-DFT,
                                                   nearIR, NL-DFT gradient (VV10), updates on ESD,
                                                   ML-optimized integration grids
   S Lehtola, MJT Oliveira, MAL Marques          : LibXC Library
   Liviu Ungur et al                             : ANISO software


 Your calculation uses the libint2 library for the computation of 2-el integrals
 For citations please refer to: http://libint.valeyev.net

 Your ORCA version has been built with support for libXC version: 5.1.0
 For citations please refer to: https://tddft.org/programs/libxc/

 This ORCA versions uses:
   CBLAS   interface :  Fast vector & matrix operations
   LAPACKE interface :  Fast linear algebra routines
   SCALAPACK package :  Parallel linear algebra routines
   Shared memory     :  Shared parallel matrices
   BLAS/LAPACK       :  OpenBLAS 0.3.15  USE64BITINT DYNAMIC_ARCH NO_AFFINITY Zen SINGLE_THREADED
        Core in use  :  Zen
   Copyright (c) 2011-2014, The OpenBLAS Project


================================================================================

----- Orbital basis set information -----
Your calculation utilizes the basis: def2-TZVP(-f)
   F. Weigend and R. Ahlrichs, Phys. Chem. Chem. Phys. 7, 3297 (2005).

----- AuxJ basis set information -----
Your calculation utilizes the auxiliary basis: def2/J
   F. Weigend, Phys. Chem. Chem. Phys. 8, 1057 (2006).

----- AuxC basis set information -----
Your calculation utilizes the auxiliary basis: def2-TZVP/C
  H-La, Hf-Rn : A. Hellweg, C. Hattig, S. Hofener and W. Klopper, Theor. Chem. Acc. 117, 587 (2007).
        Ce-Lu : J. Chmela and M. E. Harding, Mol. Phys. (2018).

================================================================================
                                        WARNINGS
                       Please study these warnings very carefully!
================================================================================


WARNING: Geometry Optimization
  ===> : Switching off AutoStart
         For restart on a previous wavefunction, please use MOREAD

INFO   : the flag for use of the SHARK integral package has been found!

================================================================================
                                       INPUT FILE
================================================================================
NAME = HBQ_GS.inp
|  1> ! B3LYP/G OPT Def2-TZVP(-f) Def2-TZVP/C Def2/J RIJCOSX TightSCF CPCM(Water) AllPop SOSCF
|  2> 
|  3> * xyz 0 1
|  4>   C   -3.28609260665609     -0.40615614381661     -0.65958858217974
|  5>   C   -2.82772916745153     -1.29824903288152     -1.63631245238532
|  6>   C   -1.47702484690859     -1.45473106198240     -1.84362746413947
|  7>   C   -2.37763249890616      0.32022257440595      0.09851763563519
|  8>   C   -0.97379537840659      0.19226313522499     -0.09381659175873
|  9>   O   -2.90460617416474      1.07401670585467      1.14728778490230
| 10>   C   -0.54373142333834     -0.71908607346258     -1.08280129872721
| 11>   C   0.85733820167293     -0.91586637814928     -1.33809114260337
| 12>   C   1.79819798182737     -0.23430504267528     -0.64530171892198
| 13>   C   0.04445292735068      0.92118208011204      0.64101499681007
| 14>   C   1.41007334207009      0.70591551024024      0.36365603666250
| 15>   N   -0.31463487926008      1.83248493780497      1.61190459597823
| 16>   C   0.61489524868520      2.50820487091430      2.28625037740697
| 17>   C   1.99402122408931      2.32808984524524      2.04725202947909
| 18>   C   2.38758582802999      1.42749834274886      1.08693139047546
| 19>   C   -3.33501304885836      2.34887108869604      0.86779522953755
| 20>   O   -3.28915228995160      2.81221692439881     -0.25777873092226
| 21>   N   -3.78008225006527      3.05787410233766      2.03482673965386
| 22>   C   -3.88645748885352      2.32148300265541      3.31444676399949
| 23>   C   -4.88970418891967      4.01555941830364      1.81597856654798
| 24>   H   -4.79725947196942      4.51242822855056      0.84106473824043
| 25>   H   -4.84326790411358      4.78482883277958      2.59828052956315
| 26>   H   -5.87676601171625      3.53195951166335      1.86591219388635
| 27>   H   -2.93245553049205      1.82856118895560      3.54454134306137
| 28>   H   -4.68339966138257      1.56333871807931      3.31275579415223
| 29>   H   -4.09863885426663      3.04090555352104      4.11678165893592
| 30>   H   -1.11253377794057     -2.15244199260055     -2.60664799158499
| 31>   H   -4.36427747754379     -0.28414830898986     -0.50350801114197
| 32>   H   -3.55154663483567     -1.86532708966576     -2.23088899493286
| 33>   H   1.14454130330629     -1.63553414655326     -2.11405727440990
| 34>   H   2.86688701849861     -0.38187887842761     -0.83872273022479
| 35>   H   0.24097823205495      3.21448732473804      3.03672131272725
| 36>   H   2.72600707846379      2.90292128838222      2.62259446508623
| 37>   H   3.44897317995215      1.26025096359198      0.87100880119082
| 38> *
| 39> 
| 40> 
| 41>                          ****END OF INPUT****
================================================================================

                       *****************************
                       * Geometry Optimization Run *
                       *****************************

Geometry optimization settings:
Update method            Update   .... BFGS
Choice of coordinates    CoordSys .... Z-matrix Internals
Initial Hessian          InHess   .... Almoef's Model

Convergence Tolerances:
Energy Change            TolE     ....  5.0000e-06 Eh
Max. Gradient            TolMAXG  ....  3.0000e-04 Eh/bohr
RMS Gradient             TolRMSG  ....  1.0000e-04 Eh/bohr
Max. Displacement        TolMAXD  ....  4.0000e-03 bohr
RMS Displacement         TolRMSD  ....  2.0000e-03 bohr
Strict Convergence                ....  False
------------------------------------------------------------------------------
                        ORCA OPTIMIZATION COORDINATE SETUP
------------------------------------------------------------------------------

The optimization will be done in new redundant internal coordinates
Making redundant internal coordinates   ...  (new redundants) done
Evaluating the initial hessian          ...  (Almloef) done
Evaluating the coordinates              ...  done
Calculating the B-matrix                .... done
Calculating the G-matrix                .... done
Diagonalizing the G-matrix              .... done
Small eigenvalue found = 3.756e-03
Small eigenvalue found = 5.984e-03
Small eigenvalue found = 1.319e-02
Small eigenvalue found = 2.451e-02
The first mode is                       ....   79
The number of degrees of freedom        ....   96

    -----------------------------------------------------------------
                    Redundant Internal Coordinates


    -----------------------------------------------------------------
         Definition                    Initial Value    Approx d2E/dq
    -----------------------------------------------------------------
      1. B(C   1,C   0)                  1.4000         0.602326   
      2. B(C   2,C   1)                  1.3755         0.659096   
      3. B(C   3,C   0)                  1.3884         0.628483   
      4. B(C   4,C   3)                  1.4227         0.554039   
      5. B(O   5,C   3)                  1.3949         0.549556   
      6. B(C   6,C   4)                  1.4120         0.576393   
      7. B(C   6,C   2)                  1.4111         0.578299   
      8. B(C   7,C   6)                  1.4377         0.524428   
      9. B(C   8,C   7)                  1.3527         0.716648   
     10. B(C   9,C   4)                  1.4519         0.497642   
     11. B(C  10,C   9)                  1.4100         0.580471   
     12. B(C  10,C   8)                  1.4327         0.534074   
     13. B(N  11,C   9)                  1.3791         0.582361   
     14. B(C  12,N  11)                  1.3324         0.691396   
     15. B(C  13,C  12)                  1.4112         0.577935   
     16. B(C  14,C  13)                  1.3741         0.662358   
     17. B(C  14,C  10)                  1.4140         0.572110   
     18. B(C  15,O   5)                  1.3743         0.592885   
     19. B(O  16,C  15)                  1.2181         1.052372   
     20. B(N  17,C  15)                  1.4362         0.472205   
     21. B(C  18,N  17)                  1.4802         0.401749   
     22. B(C  19,N  17)                  1.4820         0.399116   
     23. B(H  20,C  19)                  1.0981         0.349509   
     24. B(H  21,C  19)                  1.0981         0.349481   
     25. B(H  22,C  19)                  1.1003         0.346733   
     26. B(H  23,C  18)                  1.0982         0.349419   
     27. B(H  24,C  18)                  1.1000         0.347168   
     28. B(H  25,C  18)                  1.0983         0.349246   
     29. B(H  26,C   2)                  1.0963         0.351873   
     30. B(H  27,C   0)                  1.0962         0.351947   
     31. B(H  28,C   1)                  1.0950         0.353555   
     32. B(H  29,C   7)                  1.0966         0.351475   
     33. B(H  30,C   8)                  1.0960         0.352208   
     34. B(H  31,C  12)                  1.0963         0.351872   
     35. B(H  32,C  13)                  1.0942         0.354599   
     36. B(H  33,C  14)                  1.0960         0.352296   
     37. A(C   1,C   0,C   3)          120.0066         0.432871   
     38. A(C   3,C   0,H  27)          120.5026         0.352353   
     39. A(C   1,C   0,H  27)          119.4902         0.349832   
     40. A(C   2,C   1,H  28)          120.5553         0.355478   
     41. A(C   0,C   1,C   2)          119.9452         0.436592   
     42. A(C   0,C   1,H  28)          119.4995         0.350101   
     43. A(C   1,C   2,H  26)          120.2520         0.355191   
     44. A(C   1,C   2,C   6)          120.5929         0.433404   
     45. A(C   6,C   2,H  26)          119.1548         0.347427   
     46. A(C   4,C   3,O   5)          121.5342         0.413640   
     47. A(C   0,C   3,C   4)          121.6526         0.426428   
     48. A(C   0,C   3,O   5)          116.4909         0.423037   
     49. A(C   3,C   4,C   9)          125.3397         0.409063   
     50. A(C   3,C   4,C   6)          116.9549         0.419884   
     51. A(C   6,C   4,C   9)          117.7053         0.411942   
     52. A(C   3,O   5,C  15)          117.8203         0.415945   
     53. A(C   4,C   6,C   7)          120.6345         0.415796   
     54. A(C   2,C   6,C   7)          118.5206         0.416041   
     55. A(C   2,C   6,C   4)          120.8448         0.423110   
     56. A(C   6,C   7,H  29)          118.0807         0.341706   
     57. A(C   6,C   7,C   8)          121.1942         0.432310   
     58. A(C   8,C   7,H  29)          120.7250         0.360213   
     59. A(C   7,C   8,H  30)          121.3310         0.360341   
     60. A(C  10,C   8,H  30)          118.4755         0.342870   
     61. A(C   7,C   8,C  10)          120.1933         0.433729   
     62. A(C   4,C   9,C  10)          120.1998         0.412457   
     63. A(C  10,C   9,N  11)          119.4408         0.421416   
     64. A(C   4,C   9,N  11)          120.3590         0.410032   
     65. A(C   9,C  10,C  14)          119.4076         0.422829   
     66. A(C   8,C  10,C  14)          120.5205         0.416594   
     67. A(C   8,C  10,C   9)          120.0718         0.417671   
     68. A(C   9,N  11,C  12)          120.6470         0.431991   
     69. A(N  11,C  12,H  31)          115.8002         0.355875   
     70. A(N  11,C  12,C  13)          122.0945         0.434240   
     71. A(C  13,C  12,H  31)          122.1052         0.347390   
     72. A(C  12,C  13,H  32)          119.8453         0.347842   
     73. A(C  12,C  13,C  14)          118.8100         0.433740   
     74. A(C  14,C  13,H  32)          121.3447         0.355954   
     75. A(C  10,C  14,H  33)          119.3968         0.346869   
     76. A(C  10,C  14,C  13)          119.6001         0.432951   
     77. A(C  13,C  14,H  33)          121.0030         0.355561   
     78. A(O  16,C  15,N  17)          125.0819         0.448721   
     79. A(O   5,C  15,N  17)          112.9386         0.404910   
     80. A(O   5,C  15,O  16)          121.9388         0.467736   
     81. A(C  18,N  17,C  19)          113.2870         0.367470   
     82. A(C  15,N  17,C  19)          115.5335         0.377843   
     83. A(C  15,N  17,C  18)          118.6290         0.378273   
     84. A(H  24,C  18,H  25)          108.2175         0.287794   
     85. A(H  23,C  18,H  25)          107.9848         0.288085   
     86. A(N  17,C  18,H  25)          108.6345         0.324617   
     87. A(H  23,C  18,H  24)          108.6839         0.287816   
     88. A(N  17,C  18,H  24)          113.1809         0.324299   
     89. A(N  17,C  18,H  23)          109.9985         0.324644   
     90. A(H  21,C  19,H  22)          108.2699         0.287768   
     91. A(H  20,C  19,H  22)          108.3414         0.287771   
     92. A(N  17,C  19,H  22)          112.3929         0.323883   
     93. A(H  20,C  19,H  21)          108.1756         0.288127   
     94. A(N  17,C  19,H  21)          108.4105         0.324303   
     95. A(N  17,C  19,H  20)          111.1286         0.324307   
     96. D(C   2,C   1,C   0,H  27)    179.7443         0.025021   
     97. D(H  28,C   1,C   0,H  27)     -0.1552         0.025021   
     98. D(C   2,C   1,C   0,C   3)      0.0282         0.025021   
     99. D(H  28,C   1,C   0,C   3)   -179.8713         0.025021   
    100. D(H  26,C   2,C   1,H  28)     -0.1448         0.030307   
    101. D(H  26,C   2,C   1,C   0)    179.9568         0.030307   
    102. D(C   6,C   2,C   1,C   0)     -0.2390         0.030307   
    103. D(C   6,C   2,C   1,H  28)    179.6594         0.030307   
    104. D(O   5,C   3,C   0,C   1)   -173.1435         0.027378   
    105. D(O   5,C   3,C   0,H  27)      7.1433         0.027378   
    106. D(C   4,C   3,C   0,C   1)      0.4312         0.027378   
    107. D(C   4,C   3,C   0,H  27)   -179.2819         0.027378   
    108. D(C   6,C   4,C   3,O   5)    172.6000         0.021010   
    109. D(C   9,C   4,C   3,C   0)    179.2837         0.021010   
    110. D(C   6,C   4,C   3,C   0)     -0.6515         0.021010   
    111. D(C   9,C   4,C   3,O   5)     -7.4648         0.021010   
    112. D(C  15,O   5,C   3,C   4)     99.2281         0.021842   
    113. D(C  15,O   5,C   3,C   0)    -87.1890         0.021842   
    114. D(C   7,C   6,C   4,C   9)      0.3868         0.022812   
    115. D(C   7,C   6,C   4,C   3)   -179.6730         0.022812   
    116. D(C   2,C   6,C   4,C   9)   -179.5043         0.022812   
    117. D(C   2,C   6,C   4,C   3)      0.4359         0.022812   
    118. D(C   7,C   6,C   2,H  26)     -0.0910         0.022970   
    119. D(C   7,C   6,C   2,C   1)   -179.8973         0.022970   
    120. D(C   4,C   6,C   2,H  26)    179.8023         0.022970   
    121. D(C   4,C   6,C   2,C   1)     -0.0040         0.022970   
    122. D(H  29,C   7,C   6,C   4)    179.8652         0.018763   
    123. D(H  29,C   7,C   6,C   2)     -0.2413         0.018763   
    124. D(C   8,C   7,C   6,C   4)     -0.2212         0.018763   
    125. D(C   8,C   7,C   6,C   2)    179.6723         0.018763   
    126. D(C  10,C   8,C   7,C   6)     -0.0780         0.036319   
    127. D(H  30,C   8,C   7,H  29)     -0.0310         0.036319   
    128. D(H  30,C   8,C   7,C   6)   -179.9423         0.036319   
    129. D(C  10,C   8,C   7,H  29)    179.8333         0.036319   
    130. D(N  11,C   9,C   4,C   6)    179.5021         0.016867   
    131. D(C  10,C   9,C   4,C   6)     -0.2694         0.016867   
    132. D(C  10,C   9,C   4,C   3)    179.7959         0.016867   
    133. D(N  11,C   9,C   4,C   3)     -0.4326         0.016867   
    134. D(C  14,C  10,C   9,N  11)      0.0583         0.023151   
    135. D(C  14,C  10,C   9,C   4)    179.8319         0.023151   
    136. D(C   8,C  10,C   9,N  11)   -179.7898         0.023151   
    137. D(C   8,C  10,C   9,C   4)     -0.0162         0.023151   
    138. D(C  14,C  10,C   8,H  30)      0.2161         0.019477   
    139. D(C  14,C  10,C   8,C   7)   -179.6521         0.019477   
    140. D(C   9,C  10,C   8,H  30)   -179.9375         0.019477   
    141. D(C   9,C  10,C   8,C   7)      0.1943         0.019477   
    142. D(C  12,N  11,C   9,C  10)      0.0250         0.024678   
    143. D(C  12,N  11,C   9,C   4)   -179.7482         0.024678   
    144. D(H  31,C  12,N  11,C   9)    179.7745         0.035714   
    145. D(C  13,C  12,N  11,C   9)     -0.0902         0.035714   
    146. D(H  32,C  13,C  12,H  31)      0.1246         0.022940   
    147. D(H  32,C  13,C  12,N  11)    179.9808         0.022940   
    148. D(C  14,C  13,C  12,H  31)   -179.7870         0.022940   
    149. D(C  14,C  13,C  12,N  11)      0.0693         0.022940   
    150. D(H  33,C  14,C  13,H  32)      0.0095         0.030630   
    151. D(H  33,C  14,C  13,C  12)    179.9197         0.030630   
    152. D(C  10,C  14,C  13,H  32)   -179.8941         0.030630   
    153. D(C  10,C  14,C  13,C  12)      0.0161         0.030630   
    154. D(H  33,C  14,C  10,C   9)   -179.9827         0.022460   
    155. D(H  33,C  14,C  10,C   8)     -0.1353         0.022460   
    156. D(C  13,C  14,C  10,C   9)     -0.0775         0.022460   
    157. D(C  13,C  14,C  10,C   8)    179.7699         0.022460   
    158. D(O  16,C  15,O   5,C   3)      1.3936         0.025634   
    159. D(N  17,C  15,O   5,C   3)   -176.3943         0.025634   
    160. D(C  19,N  17,C  15,O  16)     35.4104         0.017579   
    161. D(C  19,N  17,C  15,O   5)   -146.8837         0.017579   
    162. D(C  18,N  17,C  15,O  16)    174.8670         0.017579   
    163. D(C  18,N  17,C  15,O   5)     -7.4270         0.017579   
    164. D(H  25,C  18,N  17,C  19)    -47.6473         0.013778   
    165. D(H  25,C  18,N  17,C  15)    172.0370         0.013778   
    166. D(H  24,C  18,N  17,C  19)     72.5706         0.013778   
    167. D(H  24,C  18,N  17,C  15)    -67.7452         0.013778   
    168. D(H  23,C  18,N  17,C  19)   -165.6478         0.013778   
    169. D(H  23,C  18,N  17,C  15)     54.0364         0.013778   
    170. D(H  22,C  19,N  17,C  18)    -56.1580         0.013602   
    171. D(H  22,C  19,N  17,C  15)     85.4416         0.013602   
    172. D(H  21,C  19,N  17,C  18)     63.4786         0.013602   
    173. D(H  21,C  19,N  17,C  15)   -154.9218         0.013602   
    174. D(H  20,C  19,N  17,C  18)   -177.7653         0.013602   
    175. D(H  20,C  19,N  17,C  15)    -36.1658         0.013602   
    -----------------------------------------------------------------

Number of atoms                         .... 34
Number of degrees of freedom            .... 175

Time needed for optimization step       :     2.73 sec

         *************************************************************
         *                GEOMETRY OPTIMIZATION CYCLE   1            *
         *************************************************************
---------------------------------
CARTESIAN COORDINATES (ANGSTROEM)
---------------------------------
  C     -3.286093   -0.406156   -0.659589
  C     -2.827729   -1.298249   -1.636312
  C     -1.477025   -1.454731   -1.843627
  C     -2.377632    0.320223    0.098518
  C     -0.973795    0.192263   -0.093817
  O     -2.904606    1.074017    1.147288
  C     -0.543731   -0.719086   -1.082801
  C      0.857338   -0.915866   -1.338091
  C      1.798198   -0.234305   -0.645302
  C      0.044453    0.921182    0.641015
  C      1.410073    0.705916    0.363656
  N     -0.314635    1.832485    1.611905
  C      0.614895    2.508205    2.286250
  C      1.994021    2.328090    2.047252
  C      2.387586    1.427498    1.086931
  C     -3.335013    2.348871    0.867795
  O     -3.289152    2.812217   -0.257779
  N     -3.780082    3.057874    2.034827
  C     -3.886457    2.321483    3.314447
  C     -4.889704    4.015559    1.815979
  H     -4.797259    4.512428    0.841065
  H     -4.843268    4.784829    2.598281
  H     -5.876766    3.531960    1.865912
  H     -2.932456    1.828561    3.544541
  H     -4.683400    1.563339    3.312756
  H     -4.098639    3.040906    4.116782
  H     -1.112534   -2.152442   -2.606648
  H     -4.364277   -0.284148   -0.503508
  H     -3.551547   -1.865327   -2.230889
  H      1.144541   -1.635534   -2.114057
  H      2.866887   -0.381879   -0.838723
  H      0.240978    3.214487    3.036721
  H      2.726007    2.902921    2.622594
  H      3.448973    1.260251    0.871009

----------------------------
CARTESIAN COORDINATES (A.U.)
----------------------------
  NO LB      ZA    FRAG     MASS         X           Y           Z
   0 C     6.0000    0    12.011   -6.209815   -0.767524   -1.246442
   1 C     6.0000    0    12.011   -5.343634   -2.453335   -3.092182
   2 C     6.0000    0    12.011   -2.791172   -2.749043   -3.483951
   3 C     6.0000    0    12.011   -4.493074    0.605133    0.186171
   4 C     6.0000    0    12.011   -1.840207    0.363325   -0.177288
   5 O     8.0000    0    15.999   -5.488910    2.029597    2.168060
   6 C     6.0000    0    12.011   -1.027503   -1.358876   -2.046198
   7 C     6.0000    0    12.011    1.620134   -1.730737   -2.528626
   8 C     6.0000    0    12.011    3.398102   -0.442772   -1.219444
   9 C     6.0000    0    12.011    0.084004    1.740782    1.211343
  10 C     6.0000    0    12.011    2.664652    1.333987    0.687210
  11 N     7.0000    0    14.007   -0.594574    3.462895    3.046058
  12 C     6.0000    0    12.011    1.161984    4.739820    4.320387
  13 C     6.0000    0    12.011    3.768154    4.399452    3.868746
  14 C     6.0000    0    12.011    4.511883    2.697581    2.054003
  15 C     6.0000    0    12.011   -6.302261    4.438723    1.639895
  16 O     8.0000    0    15.999   -6.215597    5.314320   -0.487131
  17 N     7.0000    0    14.007   -7.143320    5.778545    3.845265
  18 C     6.0000    0    12.011   -7.344340    4.386967    6.263397
  19 C     6.0000    0    12.011   -9.240202    7.588308    3.431702
  20 H     1.0000    0     1.008   -9.065507    8.527254    1.589382
  21 H     1.0000    0     1.008   -9.152450    9.042016    4.910039
  22 H     1.0000    0     1.008  -11.105478    6.674436    3.526063
  23 H     1.0000    0     1.008   -5.541538    3.455480    6.698212
  24 H     1.0000    0     1.008   -8.850343    2.954282    6.260201
  25 H     1.0000    0     1.008   -7.745305    5.746479    7.779590
  26 H     1.0000    0     1.008   -2.102384   -4.067526   -4.925851
  27 H     1.0000    0     1.008   -8.247289   -0.536962   -0.951492
  28 H     1.0000    0     1.008   -6.711450   -3.524957   -4.215769
  29 H     1.0000    0     1.008    2.162870   -3.090712   -3.994989
  30 H     1.0000    0     1.008    5.417631   -0.721646   -1.584956
  31 H     1.0000    0     1.008    0.455383    6.074501    5.738572
  32 H     1.0000    0     1.008    5.151407    5.485726    4.955985
  33 H     1.0000    0     1.008    6.517615    2.381529    1.645968

--------------------------------
INTERNAL COORDINATES (ANGSTROEM)
--------------------------------
 C      0   0   0     0.000000000000     0.00000000     0.00000000
 C      1   0   0     1.399970101020     0.00000000     0.00000000
 C      2   1   0     1.375452035174   119.94516746     0.00000000
 C      1   2   3     1.388398662902   120.00662125     0.02823581
 C      4   1   2     1.422717376711   121.65261212     0.43116714
 O      4   1   2     1.394928554807   116.49093480   186.85645551
 C      3   2   1     1.411051599903   120.59289284   359.76102023
 C      7   3   2     1.437668768120   118.52061315   180.10266236
 C      8   7   3     1.352664099283   121.19420748   179.67234872
 C      5   4   1     1.451940048332   125.33973032   179.28366001
 C     10   5   4     1.410030781925   120.19980279   179.79586882
 N     10   5   4     1.379145954955   120.35903397   359.56741399
 C     12  10   5     1.332428579583   120.64697593   180.25177157
 C     13  12  10     1.411222905433   122.09449686   359.90976625
 C     14  13  12     1.374108395120   118.80999564     0.06927086
 C      6   4   1     1.374270666113   117.82026870   272.81103596
 O     16   6   4     1.218076070340   121.93876474     1.39357116
 N     16   6   4     1.436222271384   112.93855339   183.60573977
 C     18  16   6     1.480207738740   118.62895709   352.57297084
 C     18  16   6     1.481997481265   115.53353587   213.11630815
 H     20  18  16     1.098126410261   111.12857599   323.83423864
 H     20  18  16     1.098147586589   108.41047453   205.07822674
 H     20  18  16     1.100296904869   112.39291207    85.44160552
 H     19  18  16     1.098196324112   109.99853200    54.03642971
 H     19  18  16     1.099955654547   113.18086684   292.25483263
 H     19  18  16     1.098331016659   108.63449628   172.03699260
 H      3   2   1     1.096291296766   120.25200935   179.95681950
 H      1   2   3     1.096234314472   119.49015019   179.74425640
 H      2   1   3     1.094993385151   119.49945480   180.10050043
 H      8   7   3     1.096599633494   118.08071526   359.75872571
 H      9   8   7     1.096031925499   121.33103448   180.05765946
 H     13  12  10     1.096291687766   115.80015779   179.77450759
 H     14  13  12     1.094190749931   119.84525645   179.98083487
 H     15  14  13     1.095964124056   121.00298656   179.91966662

---------------------------
INTERNAL COORDINATES (A.U.)
---------------------------
 C      0   0   0     0.000000000000     0.00000000     0.00000000
 C      1   0   0     2.645560086605     0.00000000     0.00000000
 C      2   1   0     2.599227656823   119.94516746     0.00000000
 C      1   2   3     2.623693237588   120.00662125     0.02823581
 C      4   1   2     2.688546207955   121.65261212     0.43116714
 O      4   1   2     2.636032944972   116.49093480   186.85645551
 C      3   2   1     2.666501084649   120.59289284   359.76102023
 C      7   3   2     2.716800243039   118.52061315   180.10266236
 C      8   7   3     2.556164698833   121.19420748   179.67234872
 C      5   4   1     2.743769054221   125.33973032   179.28366001
 C     10   5   4     2.664572018238   120.19980279   179.79586882
 N     10   5   4     2.606208153570   120.35903397   359.56741399
 C     12  10   5     2.517925108422   120.64697593   180.25177157
 C     13  12  10     2.666824805185   122.09449686   359.90976625
 C     14  13  12     2.596688545099   118.80999564     0.06927086
 C      6   4   1     2.596995192834   117.82026870   272.81103596
 O     16   6   4     2.301830183226   121.93876474     1.39357116
 N     16   6   4     2.714066760355   112.93855339   183.60573977
 C     18  16   6     2.797187247529   118.62895709   352.57297084
 C     18  16   6     2.800569370752   115.53353587   213.11630815
 H     20  18  16     2.075158175820   111.12857599   323.83423864
 H     20  18  16     2.075198193281   108.41047453   205.07822674
 H     20  18  16     2.079259816204   112.39291207    85.44160552
 H     19  18  16     2.075290293850   109.99853200    54.03642971
 H     19  18  16     2.078614946552   113.18086684   292.25483263
 H     19  18  16     2.075544825877   108.63449628   172.03699260
 H      3   2   1     2.071690313889   120.25200935   179.95681950
 H      1   2   3     2.071582632959   119.49015019   179.74425640
 H      2   1   3     2.069237616391   119.49945480   180.10050043
 H      8   7   3     2.072272985861   118.08071526   359.75872571
 H      9   8   7     2.071200173228   121.33103448   180.05765946
 H     13  12  10     2.071691052773   115.80015779   179.77450759
 H     14  13  12     2.067720855639   119.84525645   179.98083487
 H     15  14  13     2.071072047069   121.00298656   179.91966662

---------------------
BASIS SET INFORMATION
---------------------
There are 4 groups of distinct atoms

 Group   1 Type C   : 11s6p2d contracted to 5s3p2d pattern {62111/411/11}
 Group   2 Type O   : 11s6p2d contracted to 5s3p2d pattern {62111/411/11}
 Group   3 Type N   : 11s6p2d contracted to 5s3p2d pattern {62111/411/11}
 Group   4 Type H   : 5s1p contracted to 3s1p pattern {311/1}

Atom   0C    basis set group =>   1
Atom   1C    basis set group =>   1
Atom   2C    basis set group =>   1
Atom   3C    basis set group =>   1
Atom   4C    basis set group =>   1
Atom   5O    basis set group =>   2
Atom   6C    basis set group =>   1
Atom   7C    basis set group =>   1
Atom   8C    basis set group =>   1
Atom   9C    basis set group =>   1
Atom  10C    basis set group =>   1
Atom  11N    basis set group =>   3
Atom  12C    basis set group =>   1
Atom  13C    basis set group =>   1
Atom  14C    basis set group =>   1
Atom  15C    basis set group =>   1
Atom  16O    basis set group =>   2
Atom  17N    basis set group =>   3
Atom  18C    basis set group =>   1
Atom  19C    basis set group =>   1
Atom  20H    basis set group =>   4
Atom  21H    basis set group =>   4
Atom  22H    basis set group =>   4
Atom  23H    basis set group =>   4
Atom  24H    basis set group =>   4
Atom  25H    basis set group =>   4
Atom  26H    basis set group =>   4
Atom  27H    basis set group =>   4
Atom  28H    basis set group =>   4
Atom  29H    basis set group =>   4
Atom  30H    basis set group =>   4
Atom  31H    basis set group =>   4
Atom  32H    basis set group =>   4
Atom  33H    basis set group =>   4
---------------------------------
AUXILIARY/J BASIS SET INFORMATION
---------------------------------
There are 4 groups of distinct atoms

 Group   1 Type C   : 12s5p4d2f1g contracted to 6s4p3d1f1g pattern {711111/2111/211/2/1}
 Group   2 Type O   : 12s5p4d2f1g contracted to 6s4p3d1f1g pattern {711111/2111/211/2/1}
 Group   3 Type N   : 12s5p4d2f1g contracted to 6s4p3d1f1g pattern {711111/2111/211/2/1}
 Group   4 Type H   : 5s2p1d contracted to 3s1p1d pattern {311/2/1}

Atom   0C    basis set group =>   1
Atom   1C    basis set group =>   1
Atom   2C    basis set group =>   1
Atom   3C    basis set group =>   1
Atom   4C    basis set group =>   1
Atom   5O    basis set group =>   2
Atom   6C    basis set group =>   1
Atom   7C    basis set group =>   1
Atom   8C    basis set group =>   1
Atom   9C    basis set group =>   1
Atom  10C    basis set group =>   1
Atom  11N    basis set group =>   3
Atom  12C    basis set group =>   1
Atom  13C    basis set group =>   1
Atom  14C    basis set group =>   1
Atom  15C    basis set group =>   1
Atom  16O    basis set group =>   2
Atom  17N    basis set group =>   3
Atom  18C    basis set group =>   1
Atom  19C    basis set group =>   1
Atom  20H    basis set group =>   4
Atom  21H    basis set group =>   4
Atom  22H    basis set group =>   4
Atom  23H    basis set group =>   4
Atom  24H    basis set group =>   4
Atom  25H    basis set group =>   4
Atom  26H    basis set group =>   4
Atom  27H    basis set group =>   4
Atom  28H    basis set group =>   4
Atom  29H    basis set group =>   4
Atom  30H    basis set group =>   4
Atom  31H    basis set group =>   4
Atom  32H    basis set group =>   4
Atom  33H    basis set group =>   4
---------------------------------
AUXILIARY/C BASIS SET INFORMATION
---------------------------------
There are 4 groups of distinct atoms

 Group   1 Type C   : 8s6p5d3f1g contracted to 8s6p4d3f1g pattern {11111111/111111/2111/111/1}
 Group   2 Type O   : 8s6p5d3f1g contracted to 8s6p4d3f1g pattern {11111111/111111/2111/111/1}
 Group   3 Type N   : 8s6p5d3f1g contracted to 8s6p4d3f1g pattern {11111111/111111/2111/111/1}
 Group   4 Type H   : 4s3p2d contracted to 4s2p1d pattern {1111/21/2}

Atom   0C    basis set group =>   1
Atom   1C    basis set group =>   1
Atom   2C    basis set group =>   1
Atom   3C    basis set group =>   1
Atom   4C    basis set group =>   1
Atom   5O    basis set group =>   2
Atom   6C    basis set group =>   1
Atom   7C    basis set group =>   1
Atom   8C    basis set group =>   1
Atom   9C    basis set group =>   1
Atom  10C    basis set group =>   1
Atom  11N    basis set group =>   3
Atom  12C    basis set group =>   1
Atom  13C    basis set group =>   1
Atom  14C    basis set group =>   1
Atom  15C    basis set group =>   1
Atom  16O    basis set group =>   2
Atom  17N    basis set group =>   3
Atom  18C    basis set group =>   1
Atom  19C    basis set group =>   1
Atom  20H    basis set group =>   4
Atom  21H    basis set group =>   4
Atom  22H    basis set group =>   4
Atom  23H    basis set group =>   4
Atom  24H    basis set group =>   4
Atom  25H    basis set group =>   4
Atom  26H    basis set group =>   4
Atom  27H    basis set group =>   4
Atom  28H    basis set group =>   4
Atom  29H    basis set group =>   4
Atom  30H    basis set group =>   4
Atom  31H    basis set group =>   4
Atom  32H    basis set group =>   4
Atom  33H    basis set group =>   4
------------------------------------------------------------------------------
                           ORCA GTO INTEGRAL CALCULATION
                           -- RI-GTO INTEGRALS CHOSEN --
------------------------------------------------------------------------------
------------------------------------------------------------------------------
                   ___                                                        
                  /   \      - P O W E R E D   B Y -                         
                 /     \                                                     
                 |  |  |   _    _      __       _____    __    __             
                 |  |  |  | |  | |    /  \     |  _  \  |  |  /  |          
                  \  \/   | |  | |   /    \    | | | |  |  | /  /          
                 / \  \   | |__| |  /  /\  \   | |_| |  |  |/  /          
                |  |  |   |  __  | /  /__\  \  |    /   |      \           
                |  |  |   | |  | | |   __   |  |    \   |  |\   \          
                \     /   | |  | | |  |  |  |  | |\  \  |  | \   \       
                 \___/    |_|  |_| |__|  |__|  |_| \__\ |__|  \__/        
                                                                              
                      - O R C A' S   B I G   F R I E N D -                    
                                      &                                       
                       - I N T E G R A L  F E E D E R -                       
                                                                              
 v1 FN, 2020, v2 2021                                                         
------------------------------------------------------------------------------


Reading SHARK input file HBQ_GS.SHARKINP.tmp ... ok
----------------------
SHARK INTEGRAL PACKAGE
----------------------

Number of atoms                             ...     34
Number of basis functions                   ...    564
Number of shells                            ...    256
Maximum angular momentum                    ...      2
Integral batch strategy                     ... SHARK/LIBINT Hybrid
RI-J (if used) integral strategy            ... SPLIT-RIJ (Revised 2003 algorithm where possible)
Printlevel                                  ...      1
Contraction scheme used                     ... SEGMENTED contraction
Coulomb Range Separation                    ... NOT USED
Exchange Range Separation                   ... NOT USED
Finite Nucleus Model                        ... NOT USED
Auxiliary Coulomb fitting basis             ... AVAILABLE
   # of basis functions in Aux-J            ...   1134
   # of shells in Aux-J                     ...    370
   Maximum angular momentum in Aux-J        ...      4
Auxiliary J/K fitting basis                 ... NOT available
Auxiliary Correlation fitting basis         ... AVAILABLE
   # of basis functions in Aux-C            ...   1730
   # of shells in Aux-C                     ...    538
   Maximum angular momentum in Aux-C        ...      4
Auxiliary 'external' fitting basis          ... NOT available
Integral threshold                          ...     2.500000e-11
Primitive cut-off                           ...     2.500000e-12
Primitive pair pre-selection threshold      ...     2.500000e-12

Calculating pre-screening integrals         ... done (  0.1 sec) Dimension = 256
Organizing shell pair data                  ... done (  6.6 sec)
Shell pair information
Total number of shell pairs                 ...     32896
Shell pairs after pre-screening             ...     24694
Total number of primitive shell pairs       ...    108362
Primitive shell pairs kept                  ...     53907
          la=0 lb=0:   7188 shell pairs
          la=1 lb=0:   8085 shell pairs
          la=1 lb=1:   2289 shell pairs
          la=2 lb=0:   4136 shell pairs
          la=2 lb=1:   2353 shell pairs
          la=2 lb=2:    643 shell pairs

Calculating one electron integrals          ... done (  0.2 sec)
Calculating RI/J V-Matrix + Cholesky decomp.... done (  3.6 sec)
Calculating RI/C V-Matrix + Cholesky decomp.... done (  4.0 sec)
Calculating Nuclear repulsion               ... done (  0.0 sec) ENN=   1491.829849510176 Eh

SHARK setup successfully completed in  24.3 seconds

Maximum memory used throughout the entire GTOINT-calculation: 190.0 MB
-------------------------------------------------------------------------------
                                 ORCA SCF
-------------------------------------------------------------------------------

------------
SCF SETTINGS
------------
Hamiltonian:
 Density Functional     Method          .... DFT(GTOs)
 Exchange Functional    Exchange        .... B88
   X-Alpha parameter    XAlpha          ....  0.666667
   Becke's b parameter  XBeta           ....  0.004200
 Correlation Functional Correlation     .... LYP
 LDA part of GGA corr.  LDAOpt          .... VWN-3
 Gradients option       PostSCFGGA      .... off
 Hybrid DFT is turned on
   Fraction HF Exchange ScalHFX         ....  0.200000
   Scaling of DF-GGA-X  ScalDFX         ....  0.720000
   Scaling of DF-GGA-C  ScalDFC         ....  0.810000
   Scaling of DF-LDA-C  ScalLDAC        ....  1.000000
   Perturbative correction              ....  0.000000
   Density functional embedding theory  .... OFF
   NL short-range parameter             ....  4.800000
 RI-approximation to the Coulomb term is turned on
   Number of AuxJ basis functions       .... 1134
   RIJ-COSX (HFX calculated with COS-X)).... on


General Settings:
 Integral files         IntName         .... HBQ_GS
 Hartree-Fock type      HFTyp           .... RHF
 Total Charge           Charge          ....    0
 Multiplicity           Mult            ....    1
 Number of Electrons    NEL             ....  140
 Basis Dimension        Dim             ....  564
 Nuclear Repulsion      ENuc            ....   1491.8298495102 Eh

Convergence Acceleration:
 DIIS                   CNVDIIS         .... on
   Start iteration      DIISMaxIt       ....    12
   Startup error        DIISStart       ....  0.200000
   # of expansion vecs  DIISMaxEq       ....     5
   Bias factor          DIISBfac        ....   1.050
   Max. coefficient     DIISMaxC        ....  10.000
 Trust-Rad. Augm. Hess. CNVTRAH         .... auto
   Auto Start mean grad. ratio tolernc. ....  1.125000
   Auto Start start iteration           ....    20
   Auto Start num. interpolation iter.  ....    10
   Max. Number of Micro iterations      ....    16
   Max. Number of Macro iterations      .... Maxiter - #DIIS iter
   Number of Davidson start vectors     ....     2
   Converg. threshold I  (grad. norm)   ....   1.000e-05
   Converg. threshold II (energy diff.) ....   1.000e-08
   Grad. Scal. Fac. for Micro threshold ....   0.100
   Minimum threshold for Micro iter.    ....   0.010
   NR start threshold (gradient norm)   ....   0.001
   Initial trust radius                 ....   0.400
   Minimum AH scaling param. (alpha)    ....   1.000
   Maximum AH scaling param. (alpha)    .... 1000.000
   Orbital update algorithm             .... Taylor
   White noise on init. David. guess    .... on
   Maximum white noise                  ....   0.010
   Quad. conv. algorithm                .... NR
 SOSCF                  CNVSOSCF        .... on
   Start iteration      SOSCFMaxIt      ....   150
   Startup grad/error   SOSCFStart      ....  0.003300
 Level Shifting         CNVShift        .... on
   Level shift para.    LevelShift      ....    0.2500
   Turn off err/grad.   ShiftErr        ....    0.0010
 Zerner damping         CNVZerner       .... off
 Static damping         CNVDamp         .... on
   Fraction old density DampFac         ....    0.7000
   Max. Damping (<1)    DampMax         ....    0.9800
   Min. Damping (>=0)   DampMin         ....    0.0000
   Turn off err/grad.   DampErr         ....    0.1000
 Fernandez-Rico         CNVRico         .... off

SCF Procedure:
 Maximum # iterations   MaxIter         ....   125
 SCF integral mode      SCFMode         .... Direct
   Integral package                     .... SHARK and LIBINT hybrid scheme
 Reset frequency        DirectResetFreq ....    20
 Integral Threshold     Thresh          ....  2.500e-11 Eh
 Primitive CutOff       TCut            ....  2.500e-12 Eh

Convergence Tolerance:
 Convergence Check Mode ConvCheckMode   .... Total+1el-Energy
 Convergence forced     ConvForced      .... 0
 Energy Change          TolE            ....  1.000e-08 Eh
 1-El. energy change                    ....  1.000e-05 Eh
 Orbital Gradient       TolG            ....  1.000e-05
 Orbital Rotation angle TolX            ....  1.000e-05
 DIIS Error             TolErr          ....  5.000e-07


Diagonalization of the overlap matrix:
Smallest eigenvalue                        ... 3.799e-06
Time for diagonalization                   ...    0.048 sec
Threshold for overlap eigenvalues          ... 1.000e-08
Number of eigenvalues below threshold      ... 0
Time for construction of square roots      ...    1.265 sec
Total time needed                          ...    1.313 sec

Time for model grid setup =    2.852 sec

------------------------------
INITIAL GUESS: MODEL POTENTIAL
------------------------------
Loading Hartree-Fock densities                     ... done
Calculating cut-offs                               ... done
Initializing the effective Hamiltonian             ... done
Setting up the integral package (SHARK)            ... done
Starting the Coulomb interaction                   ... done (   2.7 sec)
Reading the grid                                   ... done
Mapping shells                                     ... done
Starting the XC term evaluation                    ... done (   1.4 sec)
  promolecular density results
     # of electrons  =    139.989901552
     EX              =   -115.950278972
     EC              =     -4.775898178
     EX+EC           =   -120.726177150
Transforming the Hamiltonian                       ... done (   0.0 sec)
Diagonalizing the Hamiltonian                      ... done (   0.0 sec)
Back transforming the eigenvectors                 ... done (   0.0 sec)
Now organizing SCF variables                       ... done
                      ------------------
                      INITIAL GUESS DONE (   8.2 sec)
                      ------------------
-------------------
DFT GRID GENERATION
-------------------

General Integration Accuracy     IntAcc      ... 4.388
Radial Grid Type                 RadialGrid  ... OptM3 with GC (2021)
Angular Grid (max. ang.)         AngularGrid ... 4 (Lebedev-302)
Angular grid pruning method      GridPruning ... 4 (adaptive)
Weight generation scheme         WeightScheme... Becke
Basis function cutoff            BFCut       ... 1.0000e-11
Integration weight cutoff        WCut        ... 1.0000e-14
Angular grids for H and He will be reduced by one unit
Partially contracted basis set               ... off
Rotationally invariant grid construction     ... off

Total number of grid points                  ...   164585
Total number of batches                      ...     2590
Average number of points per batch           ...       63
Average number of grid points per atom       ...     4841
Time for grid setup =    5.289 sec

--------------------
COSX GRID GENERATION
--------------------

GRIDX 1
-------
General Integration Accuracy     IntAcc      ... 3.816
Radial Grid Type                 RadialGrid  ... OptM3 with GC (2021)
Angular Grid (max. ang.)         AngularGrid ... 1 (Lebedev-50)
Angular grid pruning method      GridPruning ... 4 (adaptive)
Weight generation scheme         WeightScheme... Becke
Basis function cutoff            BFCut       ... 1.0000e-11
Integration weight cutoff        WCut        ... 1.0000e-14
Angular grids for H and He will be reduced by one unit
Partially contracted basis set               ... on
Rotationally invariant grid construction     ... off

Total number of grid points                  ...    20904
Total number of batches                      ...      343
Average number of points per batch           ...       60
Average number of grid points per atom       ...      615
UseSFitting                                  ... on

GRIDX 2
-------
General Integration Accuracy     IntAcc      ... 4.020
Radial Grid Type                 RadialGrid  ... OptM3 with GC (2021)
Angular Grid (max. ang.)         AngularGrid ... 2 (Lebedev-110)
Angular grid pruning method      GridPruning ... 4 (adaptive)
Weight generation scheme         WeightScheme... Becke
Basis function cutoff            BFCut       ... 1.0000e-11
Integration weight cutoff        WCut        ... 1.0000e-14
Angular grids for H and He will be reduced by one unit
Partially contracted basis set               ... on
Rotationally invariant grid construction     ... off

Total number of grid points                  ...    45710
Total number of batches                      ...      729
Average number of points per batch           ...       62
Average number of grid points per atom       ...     1344
UseSFitting                                  ... on

GRIDX 3
-------
General Integration Accuracy     IntAcc      ... 4.338
Radial Grid Type                 RadialGrid  ... OptM3 with GC (2021)
Angular Grid (max. ang.)         AngularGrid ... 3 (Lebedev-194)
Angular grid pruning method      GridPruning ... 4 (adaptive)
Weight generation scheme         WeightScheme... Becke
Basis function cutoff            BFCut       ... 1.0000e-11
Integration weight cutoff        WCut        ... 1.0000e-14
Angular grids for H and He will be reduced by one unit
Partially contracted basis set               ... on
Rotationally invariant grid construction     ... off

Total number of grid points                  ...   100147
Total number of batches                      ...     1582
Average number of points per batch           ...       63
Average number of grid points per atom       ...     2946
UseSFitting                                  ... on

Time for X-Grid setup             =   19.956 sec


--------------------
CPCM SOLVATION MODEL
--------------------
CPCM parameters:
  Epsilon                                         ...      80.4000
  Refrac                                          ...       1.3300
  Rsolv                                           ...       1.3000
  Surface type                                    ... GAUSSIAN VDW
  Epsilon function type                           ...         CPCM
Radii:
 Radius for C  used is    3.8550 Bohr (=   2.0400 Ang.)
 Radius for O  used is    3.4469 Bohr (=   1.8240 Ang.)
 Radius for N  used is    3.5149 Bohr (=   1.8600 Ang.)
 Radius for H  used is    2.4944 Bohr (=   1.3200 Ang.)
Calculating surface                               ...        done! (  0.0s)
GEPOL surface points                              ...         1794
GEPOL Volume                                      ...    2131.5028
GEPOL Surface-area                                ...    1089.8479
Calculating surface distance matrix               ...        done! (  0.0s)
Performing Cholesky decomposition & store         ...        done! (  1.9s)
Overall time for CPCM initialization              ...                 2.0s
--------------
SCF ITERATIONS
--------------
ITER       Energy         Delta-E        Max-DP      RMS-DP      [F,P]     Damp
               ***  Starting incremental Fock matrix formation  ***
  0   -877.9437291044   0.000000000000 0.11441288  0.00149934  0.3099627 0.7000
  1   -878.1665245847  -0.222795480278 0.10405708  0.00127253  0.1200180 0.7000
                               ***Turning on DIIS***
  2   -878.2557406760  -0.089216091384 0.13590837  0.00223196  0.0335585 0.0000
  3   -878.3970314041  -0.141290728112 0.09638939  0.00098224  0.0544827 0.0000
  4   -878.4263799975  -0.029348593372 0.02347206  0.00031831  0.0177722 0.0000
  5   -878.4282969223  -0.001916924807 0.01814783  0.00016168  0.0095907 0.0000
                      *** Initiating the SOSCF procedure ***
                           *** Shutting down DIIS ***
                      *** Re-Reading the Fockian *** 
                      *** Removing any level shift *** 
ITER      Energy       Delta-E        Grad      Rot      Max-DP    RMS-DP
  6   -878.42844734  -0.0001504213  0.000239  0.000239  0.005963  0.000052
               *** Restarting incremental Fock matrix formation ***
  7   -878.42848251  -0.0000351620  0.000107  0.000507  0.006819  0.000062
  8   -878.42848153   0.0000009757  0.000210  0.000287  0.001416  0.000014
  9   -878.42848489  -0.0000033555  0.000043  0.000100  0.000855  0.000010
 10   -878.42848481   0.0000000711  0.000058  0.000060  0.001172  0.000007
 11   -878.42848498  -0.0000001643  0.000007  0.000034  0.000270  0.000003
 12   -878.42848496   0.0000000202  0.000008  0.000020  0.000508  0.000004
                  ***Gradient check signals convergence***
              ***Rediagonalizing the Fockian in SOSCF/NRSCF***

               *****************************************************
               *                     SUCCESS                       *
               *           SCF CONVERGED AFTER  13 CYCLES          *
               *****************************************************

Old exchange energy                            =    -23.515873948 Eh
New exchange energy                            =    -23.515865777 Eh
Exchange energy change after final integration =      0.000008171 Eh
Total energy after final integration           =   -878.428476781 Eh
Final COS-X integration done in                =   113.063 sec

----------------
TOTAL SCF ENERGY
----------------

Total Energy       :         -878.42847678 Eh          -23903.25407 eV

Components:
Nuclear Repulsion  :         1491.82984951 Eh           40594.75400 eV
Electronic Energy  :        -2370.25832629 Eh          -64498.00807 eV
One Electron Energy:        -4157.06200153 Eh         -113119.40794 eV
Two Electron Energy:         1786.80367524 Eh           48621.39987 eV
Max COSX asymmetry :            0.00000208 Eh               0.00006 eV
CPCM Dielectric    :           -0.02346994 Eh              -0.63865 eV

Virial components:
Potential Energy   :        -1752.01282455 Eh          -47674.69269 eV
Kinetic Energy     :          873.58434777 Eh           23771.43862 eV
Virial Ratio       :            2.00554512


DFT components:
N(Alpha)           :       70.000103582433 electrons
N(Beta)            :       70.000103582433 electrons
N(Total)           :      140.000207164866 electrons
E(X)               :      -93.501882768768 Eh       
E(C)               :       -6.147094862449 Eh       
E(XC)              :      -99.648977631217 Eh       
DFET-embed. en.    :        0.000000000000 Eh       
CPCM Solvation Model Properties:
Surface-charge          :           -0.03346276
Charge-correction       :           -0.00042840 Eh              -0.01166 eV
Free-energy (cav+disp)  :  This term is not implemented in the current solvation scheme

---------------
SCF CONVERGENCE
---------------

  Last Energy change         ...    6.7110e-09  Tolerance :   1.0000e-08
  Last MAX-Density change    ...    1.9984e-15  Tolerance :   1.0000e-07
  Last RMS-Density change    ...    1.7540e-17  Tolerance :   5.0000e-09
  Last Orbital Gradient      ...    1.4514e-06  Tolerance :   1.0000e-05
  Last Orbital Rotation      ...    4.9351e-06  Tolerance :   1.0000e-05

             **** THE GBW FILE WAS UPDATED (HBQ_GS.gbw) ****
             **** DENSITY HBQ_GS.scfp WAS UPDATED ****
             **** ENERGY FILE WAS UPDATED (HBQ_GS.en.tmp) ****
             **** THE GBW FILE WAS UPDATED (HBQ_GS.gbw) ****
             **** DENSITY HBQ_GS.scfp WAS UPDATED ****
----------------
ORBITAL ENERGIES
----------------

  NO   OCC          E(Eh)            E(eV) 
   0   2.0000     -19.184458      -522.0356 
   1   2.0000     -19.116955      -520.1988 
   2   2.0000     -14.355692      -390.6382 
   3   2.0000     -14.320699      -389.6860 
   4   2.0000     -10.335370      -281.2397 
   5   2.0000     -10.253186      -279.0034 
   6   2.0000     -10.228505      -278.3318 
   7   2.0000     -10.217201      -278.0242 
   8   2.0000     -10.205038      -277.6932 
   9   2.0000     -10.200430      -277.5678 
  10   2.0000     -10.199788      -277.5504 
  11   2.0000     -10.199085      -277.5312 
  12   2.0000     -10.198417      -277.5130 
  13   2.0000     -10.196774      -277.4683 
  14   2.0000     -10.187595      -277.2186 
  15   2.0000     -10.187373      -277.2125 
  16   2.0000     -10.186517      -277.1892 
  17   2.0000     -10.186361      -277.1850 
  18   2.0000     -10.185561      -277.1632 
  19   2.0000     -10.183906      -277.1182 
  20   2.0000      -1.120184       -30.4818 
  21   2.0000      -1.031440       -28.0669 
  22   2.0000      -0.948455       -25.8088 
  23   2.0000      -0.930225       -25.3127 
  24   2.0000      -0.883816       -24.0499 
  25   2.0000      -0.839508       -22.8442 
  26   2.0000      -0.806768       -21.9533 
  27   2.0000      -0.784020       -21.3343 
  28   2.0000      -0.753663       -20.5082 
  29   2.0000      -0.742650       -20.2085 
  30   2.0000      -0.713314       -19.4103 
  31   2.0000      -0.693468       -18.8702 
  32   2.0000      -0.654939       -17.8218 
  33   2.0000      -0.647902       -17.6303 
  34   2.0000      -0.634412       -17.2632 
  35   2.0000      -0.619960       -16.8700 
  36   2.0000      -0.576906       -15.6984 
  37   2.0000      -0.545610       -14.8468 
  38   2.0000      -0.533357       -14.5134 
  39   2.0000      -0.528061       -14.3693 
  40   2.0000      -0.518983       -14.1222 
  41   2.0000      -0.498100       -13.5540 
  42   2.0000      -0.492005       -13.3881 
  43   2.0000      -0.482019       -13.1164 
  44   2.0000      -0.476299       -12.9608 
  45   2.0000      -0.464579       -12.6418 
  46   2.0000      -0.445986       -12.1359 
  47   2.0000      -0.444824       -12.1043 
  48   2.0000      -0.439556       -11.9609 
  49   2.0000      -0.431956       -11.7541 
  50   2.0000      -0.421497       -11.4695 
  51   2.0000      -0.417952       -11.3731 
  52   2.0000      -0.408957       -11.1283 
  53   2.0000      -0.407811       -11.0971 
  54   2.0000      -0.399295       -10.8654 
  55   2.0000      -0.397720       -10.8225 
  56   2.0000      -0.384110       -10.4522 
  57   2.0000      -0.382126       -10.3982 
  58   2.0000      -0.375195       -10.2096 
  59   2.0000      -0.365218        -9.9381 
  60   2.0000      -0.357656        -9.7323 
  61   2.0000      -0.337059        -9.1719 
  62   2.0000      -0.326433        -8.8827 
  63   2.0000      -0.308479        -8.3941 
  64   2.0000      -0.299839        -8.1590 
  65   2.0000      -0.284504        -7.7418 
  66   2.0000      -0.260940        -7.1005 
  67   2.0000      -0.256072        -6.9681 
  68   2.0000      -0.251874        -6.8538 
  69   2.0000      -0.232174        -6.3178 
  70   0.0000      -0.064451        -1.7538 
  71   0.0000      -0.057811        -1.5731 
  72   0.0000      -0.020836        -0.5670 
  73   0.0000       0.004111         0.1119 
  74   0.0000       0.011876         0.3232 
  75   0.0000       0.040734         1.1084 
  76   0.0000       0.051617         1.4046 
  77   0.0000       0.056918         1.5488 
  78   0.0000       0.059969         1.6318 
  79   0.0000       0.075060         2.0425 
  80   0.0000       0.077153         2.0994 
  81   0.0000       0.080774         2.1980 
  82   0.0000       0.086528         2.3546 
  83   0.0000       0.089917         2.4468 
  84   0.0000       0.098402         2.6777 
  85   0.0000       0.099333         2.7030 
  86   0.0000       0.108003         2.9389 
  87   0.0000       0.109802         2.9879 
  88   0.0000       0.115586         3.1453 
  89   0.0000       0.123233         3.3534 
  90   0.0000       0.126671         3.4469 
  91   0.0000       0.133345         3.6285 
  92   0.0000       0.142557         3.8792 
  93   0.0000       0.146917         3.9978 
  94   0.0000       0.148738         4.0474 
  95   0.0000       0.157408         4.2833 
  96   0.0000       0.164182         4.4676 
  97   0.0000       0.170412         4.6371 
  98   0.0000       0.175163         4.7664 
  99   0.0000       0.180675         4.9164 
 100   0.0000       0.185059         5.0357 
 101   0.0000       0.187951         5.1144 
 102   0.0000       0.193448         5.2640 
 103   0.0000       0.204262         5.5583 
 104   0.0000       0.210159         5.7187 
 105   0.0000       0.212133         5.7724 
 106   0.0000       0.215375         5.8606 
 107   0.0000       0.220035         5.9875 
 108   0.0000       0.225327         6.1314 
 109   0.0000       0.234205         6.3730 
 110   0.0000       0.236482         6.4350 
 111   0.0000       0.240667         6.5489 
 112   0.0000       0.250960         6.8290 
 113   0.0000       0.257214         6.9992 
 114   0.0000       0.260107         7.0779 
 115   0.0000       0.261752         7.1226 
 116   0.0000       0.267719         7.2850 
 117   0.0000       0.273023         7.4293 
 118   0.0000       0.278255         7.5717 
 119   0.0000       0.282910         7.6984 
 120   0.0000       0.287528         7.8240 
 121   0.0000       0.290112         7.8943 
 122   0.0000       0.296058         8.0561 
 123   0.0000       0.300329         8.1724 
 124   0.0000       0.302888         8.2420 
 125   0.0000       0.310350         8.4450 
 126   0.0000       0.311572         8.4783 
 127   0.0000       0.321604         8.7513 
 128   0.0000       0.324458         8.8289 
 129   0.0000       0.331309         9.0154 
 130   0.0000       0.335273         9.1232 
 131   0.0000       0.337377         9.1805 
 132   0.0000       0.342544         9.3211 
 133   0.0000       0.347454         9.4547 
 134   0.0000       0.352194         9.5837 
 135   0.0000       0.357193         9.7197 
 136   0.0000       0.374187        10.1821 
 137   0.0000       0.375908        10.2290 
 138   0.0000       0.380731        10.3602 
 139   0.0000       0.384393        10.4599 
 140   0.0000       0.389745        10.6055 
 141   0.0000       0.394007        10.7215 
 142   0.0000       0.399058        10.8589 
 143   0.0000       0.403909        10.9909 
 144   0.0000       0.406440        11.0598 
 145   0.0000       0.407900        11.0995 
 146   0.0000       0.412313        11.2196 
 147   0.0000       0.419999        11.4288 
 148   0.0000       0.427015        11.6197 
 149   0.0000       0.428753        11.6670 
 150   0.0000       0.438459        11.9311 
 151   0.0000       0.442773        12.0485 
 152   0.0000       0.455568        12.3966 
 153   0.0000       0.457836        12.4584 
 154   0.0000       0.460476        12.5302 
 155   0.0000       0.465556        12.6684 
 156   0.0000       0.466738        12.7006 
 157   0.0000       0.468804        12.7568 
 158   0.0000       0.472790        12.8653 
 159   0.0000       0.480555        13.0766 
 160   0.0000       0.486713        13.2441 
 161   0.0000       0.491733        13.3807 
 162   0.0000       0.495000        13.4696 
 163   0.0000       0.497123        13.5274 
 164   0.0000       0.511848        13.9281 
 165   0.0000       0.514379        13.9970 
 166   0.0000       0.515419        14.0253 
 167   0.0000       0.520370        14.1600 
 168   0.0000       0.524897        14.2832 
 169   0.0000       0.533493        14.5171 
 170   0.0000       0.538319        14.6484 
 171   0.0000       0.545847        14.8532 
 172   0.0000       0.555090        15.1048 
 173   0.0000       0.563143        15.3239 
 174   0.0000       0.573096        15.5947 
 175   0.0000       0.578517        15.7422 
 176   0.0000       0.585690        15.9374 
 177   0.0000       0.596964        16.2442 
 178   0.0000       0.599979        16.3263 
 179   0.0000       0.605068        16.4647 
 180   0.0000       0.608663        16.5626 
 181   0.0000       0.622270        16.9328 
 182   0.0000       0.631194        17.1757 
 183   0.0000       0.642314        17.4783 
 184   0.0000       0.647997        17.6329 
 185   0.0000       0.650521        17.7016 
 186   0.0000       0.657246        17.8846 
 187   0.0000       0.661207        17.9924 
 188   0.0000       0.672515        18.3001 
 189   0.0000       0.678787        18.4707 
 190   0.0000       0.680974        18.5302 
 191   0.0000       0.688489        18.7347 
 192   0.0000       0.692553        18.8453 
 193   0.0000       0.699031        19.0216 
 194   0.0000       0.705842        19.2069 
 195   0.0000       0.715443        19.4682 
 196   0.0000       0.718215        19.5436 
 197   0.0000       0.728167        19.8144 
 198   0.0000       0.733454        19.9583 
 199   0.0000       0.740130        20.1400 
 200   0.0000       0.748812        20.3762 
 201   0.0000       0.754401        20.5283 
 202   0.0000       0.758611        20.6428 
 203   0.0000       0.763082        20.7645 
 204   0.0000       0.764140        20.7933 
 205   0.0000       0.780102        21.2277 
 206   0.0000       0.784088        21.3361 
 207   0.0000       0.791091        21.5267 
 208   0.0000       0.794662        21.6239 
 209   0.0000       0.809876        22.0378 
 210   0.0000       0.818918        22.2839 
 211   0.0000       0.823946        22.4207 
 212   0.0000       0.824464        22.4348 
 213   0.0000       0.834828        22.7168 
 214   0.0000       0.843217        22.9451 
 215   0.0000       0.848902        23.0998 
 216   0.0000       0.857851        23.3433 
 217   0.0000       0.860176        23.4066 
 218   0.0000       0.869657        23.6646 
 219   0.0000       0.875538        23.8246 
 220   0.0000       0.886535        24.1238 
 221   0.0000       0.893710        24.3191 
 222   0.0000       0.901660        24.5354 
 223   0.0000       0.907433        24.6925 
 224   0.0000       0.919598        25.0235 
 225   0.0000       0.923710        25.1354 
 226   0.0000       0.941816        25.6281 
 227   0.0000       0.944097        25.6902 
 228   0.0000       0.950912        25.8756 
 229   0.0000       0.975254        26.5380 
 230   0.0000       0.976926        26.5835 
 231   0.0000       0.985618        26.8200 
 232   0.0000       0.993195        27.0262 
 233   0.0000       1.006117        27.3778 
 234   0.0000       1.007739        27.4220 
 235   0.0000       1.016517        27.6608 
 236   0.0000       1.026206        27.9245 
 237   0.0000       1.034357        28.1463 
 238   0.0000       1.038533        28.2599 
 239   0.0000       1.058336        28.7988 
 240   0.0000       1.069940        29.1146 
 241   0.0000       1.077205        29.3122 
 242   0.0000       1.084526        29.5115 
 243   0.0000       1.089406        29.6443 
 244   0.0000       1.090061        29.6621 
 245   0.0000       1.108623        30.1672 
 246   0.0000       1.111436        30.2437 
 247   0.0000       1.120927        30.5020 
 248   0.0000       1.148287        31.2465 
 249   0.0000       1.155683        31.4477 
 250   0.0000       1.169131        31.8137 
 251   0.0000       1.178194        32.0603 
 252   0.0000       1.185930        32.2708 
 253   0.0000       1.195513        32.5316 
 254   0.0000       1.207883        32.8682 
 255   0.0000       1.214277        33.0421 
 256   0.0000       1.222740        33.2725 
 257   0.0000       1.244861        33.8744 
 258   0.0000       1.246042        33.9065 
 259   0.0000       1.250045        34.0155 
 260   0.0000       1.270119        34.5617 
 261   0.0000       1.276141        34.7255 
 262   0.0000       1.282531        34.8994 
 263   0.0000       1.288801        35.0701 
 264   0.0000       1.296065        35.2677 
 265   0.0000       1.312917        35.7263 
 266   0.0000       1.323968        36.0270 
 267   0.0000       1.326198        36.0877 
 268   0.0000       1.336952        36.3803 
 269   0.0000       1.341446        36.5026 
 270   0.0000       1.352816        36.8120 
 271   0.0000       1.360284        37.0152 
 272   0.0000       1.366235        37.1771 
 273   0.0000       1.394033        37.9336 
 274   0.0000       1.405750        38.2524 
 275   0.0000       1.408294        38.3216 
 276   0.0000       1.424496        38.7625 
 277   0.0000       1.425802        38.7981 
 278   0.0000       1.430392        38.9229 
 279   0.0000       1.447814        39.3970 
 280   0.0000       1.451633        39.5009 
 281   0.0000       1.460601        39.7450 
 282   0.0000       1.462721        39.8027 
 283   0.0000       1.475680        40.1553 
 284   0.0000       1.491337        40.5814 
 285   0.0000       1.498268        40.7700 
 286   0.0000       1.503182        40.9037 
 287   0.0000       1.506150        40.9844 
 288   0.0000       1.511688        41.1351 
 289   0.0000       1.525373        41.5075 
 290   0.0000       1.530157        41.6377 
 291   0.0000       1.540328        41.9144 
 292   0.0000       1.544033        42.0153 
 293   0.0000       1.551859        42.2282 
 294   0.0000       1.553521        42.2735 
 295   0.0000       1.559717        42.4420 
 296   0.0000       1.563027        42.5321 
 297   0.0000       1.570493        42.7353 
 298   0.0000       1.580100        42.9967 
 299   0.0000       1.590077        43.2682 
 300   0.0000       1.595482        43.4153 
 301   0.0000       1.599759        43.5317 
 302   0.0000       1.606407        43.7126 
 303   0.0000       1.612215        43.8706 
 304   0.0000       1.615258        43.9534 
 305   0.0000       1.624437        44.2032 
 306   0.0000       1.631018        44.3823 
 307   0.0000       1.649618        44.8884 
 308   0.0000       1.654420        45.0191 
 309   0.0000       1.664819        45.3020 
 310   0.0000       1.668797        45.4103 
 311   0.0000       1.669954        45.4417 
 312   0.0000       1.679771        45.7089 
 313   0.0000       1.684743        45.8442 
 314   0.0000       1.694793        46.1177 
 315   0.0000       1.704499        46.3818 
 316   0.0000       1.711296        46.5667 
 317   0.0000       1.720278        46.8112 
 318   0.0000       1.728468        47.0340 
 319   0.0000       1.736542        47.2537 
 320   0.0000       1.745497        47.4974 
 321   0.0000       1.754528        47.7431 
 322   0.0000       1.765097        48.0307 
 323   0.0000       1.771051        48.1928 
 324   0.0000       1.775134        48.3038 
 325   0.0000       1.803919        49.0871 
 326   0.0000       1.807583        49.1868 
 327   0.0000       1.836882        49.9841 
 328   0.0000       1.844520        50.1920 
 329   0.0000       1.853615        50.4394 
 330   0.0000       1.872561        50.9550 
 331   0.0000       1.884289        51.2741 
 332   0.0000       1.887873        51.3716 
 333   0.0000       1.898557        51.6624 
 334   0.0000       1.903468        51.7960 
 335   0.0000       1.922318        52.3089 
 336   0.0000       1.929007        52.4910 
 337   0.0000       1.949441        53.0470 
 338   0.0000       1.958336        53.2890 
 339   0.0000       1.966464        53.5102 
 340   0.0000       1.983626        53.9772 
 341   0.0000       1.990188        54.1558 
 342   0.0000       2.005743        54.5790 
 343   0.0000       2.024864        55.0993 
 344   0.0000       2.034232        55.3543 
 345   0.0000       2.045894        55.6716 
 346   0.0000       2.070083        56.3298 
 347   0.0000       2.077267        56.5253 
 348   0.0000       2.086222        56.7690 
 349   0.0000       2.089773        56.8656 
 350   0.0000       2.103154        57.2297 
 351   0.0000       2.138581        58.1937 
 352   0.0000       2.157410        58.7061 
 353   0.0000       2.160604        58.7930 
 354   0.0000       2.176812        59.2341 
 355   0.0000       2.188019        59.5390 
 356   0.0000       2.198921        59.8357 
 357   0.0000       2.205065        60.0029 
 358   0.0000       2.224735        60.5381 
 359   0.0000       2.227135        60.6034 
 360   0.0000       2.237717        60.8914 
 361   0.0000       2.251185        61.2578 
 362   0.0000       2.265111        61.6368 
 363   0.0000       2.277204        61.9659 
 364   0.0000       2.281580        62.0849 
 365   0.0000       2.284196        62.1561 
 366   0.0000       2.313589        62.9560 
 367   0.0000       2.316413        63.0328 
 368   0.0000       2.327265        63.3281 
 369   0.0000       2.335315        63.5472 
 370   0.0000       2.340881        63.6986 
 371   0.0000       2.353546        64.0432 
 372   0.0000       2.364605        64.3442 
 373   0.0000       2.375980        64.6537 
 374   0.0000       2.388452        64.9931 
 375   0.0000       2.401413        65.3458 
 376   0.0000       2.404194        65.4214 
 377   0.0000       2.424789        65.9819 
 378   0.0000       2.427819        66.0643 
 379   0.0000       2.435798        66.2814 
 380   0.0000       2.454400        66.7876 
 381   0.0000       2.462199        66.9998 
 382   0.0000       2.466734        67.1232 
 383   0.0000       2.476749        67.3958 
 384   0.0000       2.483808        67.5879 
 385   0.0000       2.495592        67.9085 
 386   0.0000       2.522050        68.6285 
 387   0.0000       2.538831        69.0851 
 388   0.0000       2.561095        69.6909 
 389   0.0000       2.576288        70.1044 
 390   0.0000       2.594491        70.5997 
 391   0.0000       2.609831        71.0171 
 392   0.0000       2.618576        71.2551 
 393   0.0000       2.629411        71.5499 
 394   0.0000       2.641462        71.8778 
 395   0.0000       2.646957        72.0274 
 396   0.0000       2.662795        72.4583 
 397   0.0000       2.667713        72.5922 
 398   0.0000       2.681347        72.9632 
 399   0.0000       2.684569        73.0508 
 400   0.0000       2.691139        73.2296 
 401   0.0000       2.697399        73.4000 
 402   0.0000       2.703148        73.5564 
 403   0.0000       2.715866        73.9025 
 404   0.0000       2.726069        74.1801 
 405   0.0000       2.735748        74.4435 
 406   0.0000       2.744207        74.6737 
 407   0.0000       2.759362        75.0861 
 408   0.0000       2.776552        75.5538 
 409   0.0000       2.791922        75.9720 
 410   0.0000       2.809474        76.4497 
 411   0.0000       2.810099        76.4667 
 412   0.0000       2.828544        76.9686 
 413   0.0000       2.837196        77.2040 
 414   0.0000       2.838704        77.2451 
 415   0.0000       2.844745        77.4094 
 416   0.0000       2.857140        77.7467 
 417   0.0000       2.869064        78.0712 
 418   0.0000       2.876054        78.2614 
 419   0.0000       2.885301        78.5130 
 420   0.0000       2.893645        78.7401 
 421   0.0000       2.897991        78.8583 
 422   0.0000       2.909944        79.1836 
 423   0.0000       2.923084        79.5411 
 424   0.0000       2.928011        79.6752 
 425   0.0000       2.936152        79.8968 
 426   0.0000       2.950064        80.2753 
 427   0.0000       2.956006        80.4370 
 428   0.0000       2.963451        80.6396 
 429   0.0000       2.968141        80.7672 
 430   0.0000       2.978448        81.0477 
 431   0.0000       2.993019        81.4442 
 432   0.0000       2.994547        81.4858 
 433   0.0000       3.002844        81.7115 
 434   0.0000       3.025918        82.3394 
 435   0.0000       3.034977        82.5859 
 436   0.0000       3.043520        82.8184 
[...]
      dyz     :     0.013794
      dx2y2   :     0.007469
      dxy     :     0.010990
 19 C s       :     3.241976  s :     3.241976
      pz      :     1.100875  p :     2.940571
      px      :     1.048512
      py      :     0.791184
      dz2     :     0.008550  d :     0.065720
      dxz     :     0.003981
      dyz     :     0.014475
      dx2y2   :     0.020515
      dxy     :     0.018200
 20 H s       :     0.831315  s :     0.831315
      pz      :     0.013699  p :     0.024609
      px      :     0.005358
      py      :     0.005551
 21 H s       :     0.838993  s :     0.838993
      pz      :     0.010291  p :     0.022894
      px      :     0.005592
      py      :     0.007012
 22 H s       :     0.844134  s :     0.844134
      pz      :     0.004424  p :     0.022760
      px      :     0.015259
      py      :     0.003077
 23 H s       :     0.825977  s :     0.825977
      pz      :     0.003923  p :     0.024262
      px      :     0.008074
      py      :     0.012265
 24 H s       :     0.841211  s :     0.841211
      pz      :     0.003284  p :     0.022830
      px      :     0.014457
      py      :     0.005089
 25 H s       :     0.838323  s :     0.838323
      pz      :     0.010502  p :     0.023082
      px      :     0.004742
      py      :     0.007838
 26 H s       :     0.862694  s :     0.862694
      pz      :     0.011222  p :     0.026263
      px      :     0.005355
      py      :     0.009686
 27 H s       :     0.861044  s :     0.861044
      pz      :     0.004775  p :     0.026276
      px      :     0.017148
      py      :     0.004353
 28 H s       :     0.861454  s :     0.861454
      pz      :     0.008135  p :     0.026088
      px      :     0.008870
      py      :     0.009083
 29 H s       :     0.865663  s :     0.865663
      pz      :     0.011423  p :     0.026227
      px      :     0.004802
      py      :     0.010003
 30 H s       :     0.869079  s :     0.869079
      pz      :     0.004769  p :     0.026261
      px      :     0.017066
      py      :     0.004425
 31 H s       :     0.857598  s :     0.857598
      pz      :     0.010676  p :     0.024818
      px      :     0.004591
      py      :     0.009552
 32 H s       :     0.851795  s :     0.851795
      pz      :     0.008255  p :     0.026426
      px      :     0.009106
      py      :     0.009065
 33 H s       :     0.850898  s :     0.850898
      pz      :     0.004588  p :     0.026003
      px      :     0.017215
      py      :     0.004199


                     *******************************
                     * LOEWDIN POPULATION ANALYSIS *
                     *******************************

----------------------
LOEWDIN ATOMIC CHARGES
----------------------
   0 C :   -0.099142
   1 C :   -0.120936
   2 C :   -0.096006
   3 C :   -0.121553
   4 C :   -0.027674
   5 O :    0.177414
   6 C :   -0.080889
   7 C :   -0.089890
   8 C :   -0.093308
   9 C :   -0.089095
  10 C :   -0.089862
  11 N :    0.067026
  12 C :   -0.157585
  13 C :   -0.128539
  14 C :   -0.064396
  15 C :   -0.357786
  16 O :   -0.102184
  17 N :    0.074488
  18 C :   -0.223897
  19 C :   -0.220050
  20 H :    0.117999
  21 H :    0.113684
  22 H :    0.111850
  23 H :    0.116612
  24 H :    0.110907
  25 H :    0.115705
  26 H :    0.145646
  27 H :    0.147259
  28 H :    0.143568
  29 H :    0.147262
  30 H :    0.146663
  31 H :    0.133251
  32 H :    0.144201
  33 H :    0.149258

-------------------------------
LOEWDIN REDUCED ORBITAL CHARGES
-------------------------------
  0 C s       :     2.774621  s :     2.774621
      pz      :     0.984240  p :     2.964097
      px      :     1.001661
      py      :     0.978196
      dz2     :     0.079413  d :     0.360424
      dxz     :     0.068897
      dyz     :     0.062863
      dx2y2   :     0.091537
      dxy     :     0.057715
  1 C s       :     2.776421  s :     2.776421
      pz      :     0.964398  p :     2.966768
      px      :     1.053294
      py      :     0.949075
      dz2     :     0.057021  d :     0.377747
      dxz     :     0.108040
      dyz     :     0.041892
      dx2y2   :     0.068934
      dxy     :     0.101861
  2 C s       :     2.769280  s :     2.769280
      pz      :     0.953574  p :     2.957279
      px      :     1.055264
      py      :     0.948441
      dz2     :     0.044056  d :     0.369447
      dxz     :     0.099895
      dyz     :     0.041729
      dx2y2   :     0.084913
      dxy     :     0.098854
  3 C s       :     2.724781  s :     2.724781
      pz      :     0.865552  p :     2.775400
      px      :     1.015185
      py      :     0.894662
      dz2     :     0.123483  d :     0.621372
      dxz     :     0.157362
      dyz     :     0.090513
      dx2y2   :     0.124589
      dxy     :     0.125424
  4 C s       :     2.710259  s :     2.710259
      pz      :     0.942296  p :     2.860402
      px      :     0.983987
      py      :     0.934120
      dz2     :     0.078654  d :     0.457013
      dxz     :     0.108720
      dyz     :     0.057964
      dx2y2   :     0.105137
      dxy     :     0.106537
  5 O s       :     3.272073  s :     3.272073
      pz      :     1.532389  p :     4.449657
      px      :     1.579652
      py      :     1.337616
      dz2     :     0.021517  d :     0.100856
      dxz     :     0.012442
      dyz     :     0.024006
      dx2y2   :     0.024988
      dxy     :     0.017903
  6 C s       :     2.709933  s :     2.709933
      pz      :     0.937341  p :     2.872305
      px      :     1.006370
      py      :     0.928594
      dz2     :     0.090491  d :     0.498652
      dxz     :     0.117039
      dyz     :     0.066375
      dx2y2   :     0.113532
      dxy     :     0.111214
  7 C s       :     2.770478  s :     2.770478
      pz      :     0.960205  p :     2.947876
      px      :     1.030977
      py      :     0.956694
      dz2     :     0.047641  d :     0.371536
      dxz     :     0.090241
      dyz     :     0.049308
      dx2y2   :     0.093830
      dxy     :     0.090516
  8 C s       :     2.770138  s :     2.770138
      pz      :     0.970584  p :     2.952547
      px      :     1.015216
      py      :     0.966748
      dz2     :     0.084479  d :     0.370623
      dxz     :     0.063163
      dyz     :     0.064482
      dx2y2   :     0.102935
      dxy     :     0.055565
  9 C s       :     2.711338  s :     2.711338
      pz      :     0.900069  p :     2.796983
      px      :     1.000385
      py      :     0.896529
      dz2     :     0.097540  d :     0.580774
      dxz     :     0.148769
      dyz     :     0.079579
      dx2y2   :     0.116958
      dxy     :     0.137929
 10 C s       :     2.710528  s :     2.710528
      pz      :     0.939213  p :     2.885867
      px      :     1.015386
      py      :     0.931267
      dz2     :     0.091038  d :     0.493467
      dxz     :     0.113305
      dyz     :     0.067118
      dx2y2   :     0.113983
      dxy     :     0.108023
 11 N s       :     3.062281  s :     3.062281
      pz      :     1.118950  p :     3.661130
      px      :     1.435860
      py      :     1.106320
      dz2     :     0.044850  d :     0.209563
      dxz     :     0.040238
      dyz     :     0.043615
      dx2y2   :     0.040555
      dxy     :     0.040305
 12 C s       :     2.786659  s :     2.786659
      pz      :     0.921850  p :     2.884917
      px      :     1.046808
      py      :     0.916259
      dz2     :     0.064157  d :     0.486009
      dxz     :     0.114278
      dyz     :     0.057816
      dx2y2   :     0.129125
      dxy     :     0.120633
 13 C s       :     2.781644  s :     2.781644
      pz      :     0.975813  p :     2.985975
      px      :     1.044936
      py      :     0.965226
      dz2     :     0.051159  d :     0.360921
      dxz     :     0.099978
      dyz     :     0.044303
      dx2y2   :     0.071593
      dxy     :     0.093888
 14 C s       :     2.773671  s :     2.773671
      pz      :     0.962464  p :     2.918269
      px      :     1.002984
      py      :     0.952821
      dz2     :     0.081307  d :     0.372457
      dxz     :     0.069032
      dyz     :     0.063234
      dx2y2   :     0.099150
      dxy     :     0.059734
 15 C s       :     2.724193  s :     2.724193
      pz      :     0.960560  p :     2.617304
      px      :     0.809664
      py      :     0.847080
      dz2     :     0.257735  d :     1.016289
      dxz     :     0.191311
      dyz     :     0.282850
      dx2y2   :     0.155229
      dxy     :     0.129164
 16 O s       :     3.433840  s :     3.433840
      pz      :     1.496783  p :     4.602284
      px      :     1.490565
      py      :     1.614936
      dz2     :     0.023183  d :     0.066060
      dxz     :     0.014354
      dyz     :     0.020824
      dx2y2   :     0.003821
      dxy     :     0.003878
 17 N s       :     2.921909  s :     2.921909
      pz      :     1.187472  p :     3.733318
      px      :     1.361991
      py      :     1.183856
      dz2     :     0.067510  d :     0.270285
      dxz     :     0.041506
      dyz     :     0.081659
      dx2y2   :     0.039834
      dxy     :     0.039777
 18 C s       :     2.836396  s :     2.836396
      pz      :     0.929129  p :     3.082029
      px      :     1.094535
      py      :     1.058364
      dz2     :     0.084294  d :     0.305472
      dxz     :     0.053330
      dyz     :     0.078766
      dx2y2   :     0.038219
      dxy     :     0.050863
 19 C s       :     2.835301  s :     2.835301
      pz      :     1.103865  p :     3.079856
      px      :     1.074298
      py      :     0.901694
      dz2     :     0.044924  d :     0.304893
      dxz     :     0.014327
      dyz     :     0.078763
      dx2y2   :     0.096131
      dxy     :     0.070747
 20 H s       :     0.818050  s :     0.818050
      pz      :     0.035169  p :     0.063952
      px      :     0.015185
      py      :     0.013598
 21 H s       :     0.826020  s :     0.826020
      pz      :     0.027237  p :     0.060295
      px      :     0.015860
      py      :     0.017199
 22 H s       :     0.827873  s :     0.827873
      pz      :     0.013137  p :     0.060277
      px      :     0.038097
      py      :     0.009043
 23 H s       :     0.819875  s :     0.819875
      pz      :     0.010628  p :     0.063513
      px      :     0.022082
      py      :     0.030803
 24 H s       :     0.828755  s :     0.828755
      pz      :     0.009638  p :     0.060339
      px      :     0.036460
      py      :     0.014241
 25 H s       :     0.823904  s :     0.823904
      pz      :     0.024963  p :     0.060391
      px      :     0.013755
      py      :     0.021673
 26 H s       :     0.793137  s :     0.793137
      pz      :     0.024718  p :     0.061217
      px      :     0.014562
      py      :     0.021937
 27 H s       :     0.791419  s :     0.791419
      pz      :     0.013015  p :     0.061322
      px      :     0.035981
      py      :     0.012326
 28 H s       :     0.795596  s :     0.795596
      pz      :     0.019082  p :     0.060835
      px      :     0.021088
      py      :     0.020665
 29 H s       :     0.791795  s :     0.791795
      pz      :     0.025016  p :     0.060942
      px      :     0.013537
      py      :     0.022389
 30 H s       :     0.792226  s :     0.792226
      pz      :     0.013088  p :     0.061111
      px      :     0.035649
      py      :     0.012374
 31 H s       :     0.807660  s :     0.807660
      pz      :     0.023936  p :     0.059090
      px      :     0.013394
      py      :     0.021760
 32 H s       :     0.794066  s :     0.794066
      pz      :     0.019324  p :     0.061733
      px      :     0.021688
      py      :     0.020721
 33 H s       :     0.789968  s :     0.789968
      pz      :     0.012590  p :     0.060774
      px      :     0.036381
      py      :     0.011803


                      *****************************
                      * MAYER POPULATION ANALYSIS *
                      *****************************

  NA   - Mulliken gross atomic population
  ZA   - Total nuclear charge
  QA   - Mulliken gross atomic charge
  VA   - Mayer's total valence
  BVA  - Mayer's bonded valence
  FA   - Mayer's free valence

  ATOM       NA         ZA         QA         VA         BVA        FA
  0 C      6.1577     6.0000    -0.1577     3.9488     3.9488    -0.0000
  1 C      6.1130     6.0000    -0.1130     3.8377     3.8377    -0.0000
  2 C      6.1866     6.0000    -0.1866     3.7757     3.7757     0.0000
  3 C      5.8694     6.0000     0.1306     3.8077     3.8077    -0.0000
  4 C      5.8281     6.0000     0.1719     3.5530     3.5530    -0.0000
  5 O      8.4719     8.0000    -0.4719     2.0394     2.0394     0.0000
  6 C      5.7644     6.0000     0.2356     3.7987     3.7987    -0.0000
  7 C      6.2440     6.0000    -0.2440     3.7631     3.7631    -0.0000
  8 C      6.2593     6.0000    -0.2593     3.7677     3.7677     0.0000
  9 C      5.8519     6.0000     0.1481     3.7789     3.7789    -0.0000
 10 C      5.6572     6.0000     0.3428     3.7447     3.7447     0.0000
 11 N      7.5191     7.0000    -0.5191     2.9720     2.9720     0.0000
 12 C      5.9351     6.0000     0.0649     4.0316     4.0316    -0.0000
 13 C      6.0445     6.0000    -0.0445     3.8337     3.8337    -0.0000
 14 C      6.2086     6.0000    -0.2086     3.9564     3.9564    -0.0000
 15 C      5.2517     6.0000     0.7483     4.1592     4.1592     0.0000
 16 O      8.6418     8.0000    -0.6418     1.9485     1.9485     0.0000
 17 N      7.2333     7.0000    -0.2333     3.2236     3.2236    -0.0000
 18 C      6.2650     6.0000    -0.2650     3.8557     3.8557    -0.0000
 19 C      6.2483     6.0000    -0.2483     3.8347     3.8347     0.0000
 20 H      0.8559     1.0000     0.1441     0.9848     0.9848     0.0000
 21 H      0.8619     1.0000     0.1381     0.9518     0.9518     0.0000
 22 H      0.8669     1.0000     0.1331     0.9489     0.9489    -0.0000
 23 H      0.8502     1.0000     0.1498     0.9699     0.9699     0.0000
 24 H      0.8640     1.0000     0.1360     0.9491     0.9491    -0.0000
 25 H      0.8614     1.0000     0.1386     0.9513     0.9513    -0.0000
 26 H      0.8890     1.0000     0.1110     0.9728     0.9728     0.0000
 27 H      0.8873     1.0000     0.1127     0.9777     0.9777     0.0000
 28 H      0.8875     1.0000     0.1125     0.9649     0.9649     0.0000
 29 H      0.8919     1.0000     0.1081     0.9767     0.9767    -0.0000
 30 H      0.8953     1.0000     0.1047     0.9776     0.9776     0.0000
 31 H      0.8824     1.0000     0.1176     0.9667     0.9667    -0.0000
 32 H      0.8782     1.0000     0.1218     0.9661     0.9661    -0.0000
 33 H      0.8769     1.0000     0.1231     0.9716     0.9716     0.0000

  Mayer bond orders larger than 0.100000
B(  0-C ,  1-C ) :   1.2610 B(  0-C ,  3-C ) :   1.4933 B(  0-C , 27-H ) :   1.0019 
B(  1-C ,  2-C ) :   1.4080 B(  1-C , 28-H ) :   0.9995 B(  2-C ,  6-C ) :   1.2632 
B(  2-C , 26-H ) :   1.0014 B(  3-C ,  4-C ) :   1.2162 B(  3-C ,  5-O ) :   0.9069 
B(  4-C ,  6-C ) :   1.3160 B(  4-C ,  9-C ) :   1.0011 B(  5-O , 15-C ) :   0.9988 
B(  6-C ,  7-C ) :   1.1179 B(  7-C ,  8-C ) :   1.5203 B(  7-C , 29-H ) :   1.0109 
B(  8-C , 10-C ) :   1.1061 B(  8-C , 30-H ) :   1.0200 B(  9-C , 10-C ) :   1.3168 
B(  9-C , 11-N ) :   1.3693 B( 10-C , 14-C ) :   1.2824 B( 11-N , 12-C ) :   1.5612 
B( 12-C , 13-C ) :   1.3123 B( 12-C , 31-H ) :   0.9756 B( 13-C , 14-C ) :   1.4747 
B( 13-C , 32-H ) :   0.9664 B( 14-C , 33-H ) :   0.9711 B( 15-C , 16-O ) :   1.7722 
B( 15-C , 17-N ) :   1.3228 B( 17-N , 18-C ) :   0.9476 B( 17-N , 19-C ) :   0.9408 
B( 18-C , 23-H ) :   0.9617 B( 18-C , 24-H ) :   0.9612 B( 18-C , 25-H ) :   0.9640 
B( 19-C , 20-H ) :   0.9630 B( 19-C , 21-H ) :   0.9641 B( 19-C , 22-H ) :   0.9603 


Environment variable NBOEXE for nbo6.exe or nbo5.exe not set! Skipping NBO-Analysis

-------
TIMINGS
-------

Total SCF time: 0 days 0 hours 8 min 30 sec 

Total time                  ....     510.454 sec
Sum of individual times     ....     467.572 sec  ( 91.6%)

Fock matrix formation       ....     448.153 sec  ( 87.8%)
  Split-RI-J                ....      27.211 sec  (  6.1% of F)
  Chain of spheres X        ....     331.580 sec  ( 74.0% of F)
  XC integration            ....      38.606 sec  (  8.6% of F)
    Basis function eval.    ....       5.874 sec  ( 15.2% of XC)
    Density eval.           ....      11.956 sec  ( 31.0% of XC)
    XC-Functional eval.     ....       1.548 sec  (  4.0% of XC)
    XC-Potential eval.      ....       4.910 sec  ( 12.7% of XC)
Diagonalization             ....       0.078 sec  (  0.0%)
Density matrix formation    ....       0.035 sec  (  0.0%)
Population analysis         ....       4.035 sec  (  0.8%)
Initial guess               ....       0.083 sec  (  0.0%)
Orbital Transformation      ....       0.000 sec  (  0.0%)
Orbital Orthonormalization  ....       0.072 sec  (  0.0%)
DIIS solution               ....       0.022 sec  (  0.0%)
SOSCF solution              ....       1.144 sec  (  0.2%)
Grid generation             ....      14.022 sec  (  2.7%)

Maximum memory used throughout the entire SCF-calculation: 288.7 MB

-------------------------   --------------------
FINAL SINGLE POINT ENERGY      -878.440365738978
-------------------------   --------------------

                                *** OPTIMIZATION RUN DONE ***

                            ***************************************
                            *     ORCA property calculations      *
                            ***************************************

                                    ---------------------
                                    Active property flags
                                    ---------------------
   (+) Dipole Moment


------------------------------------------------------------------------------
                       ORCA ELECTRIC PROPERTIES CALCULATION
------------------------------------------------------------------------------

Dipole Moment Calculation                       ... on
Quadrupole Moment Calculation                   ... off
Polarizability Calculation                      ... off
GBWName                                         ... HBQ_GS.gbw
Electron density                                ... HBQ_GS.scfp
The origin for moment calculation is the CENTER OF MASS  = (-2.599227,  2.048662  1.008752)

-------------
DIPOLE MOMENT
-------------
                                X             Y             Z
Electronic contribution:      6.15740      -5.76845      -5.52992
Nuclear contribution   :     -5.43127       5.35999       6.66836
                        -----------------------------------------
Total Dipole Moment    :      0.72613      -0.40846       1.13845
                        -----------------------------------------
Magnitude (a.u.)       :      1.41073
Magnitude (Debye)      :      3.58580



--------------------
Rotational spectrum 
--------------------
 
Rotational constants in cm-1:     0.016255     0.010868     0.007093 
Rotational constants in MHz :   487.301847   325.811165   212.657683 

 Dipole components along the rotational axes: 
x,y,z [a.u.] :     0.309720     0.821754     1.104067 
x,y,z [Debye]:     0.787245     2.088732     2.806316 

 

Timings for individual modules:

Sum of individual times         ...    16949.044 sec (= 282.484 min)
GTO integral calculation        ...      414.379 sec (=   6.906 min)   2.4 %
SCF iterations                  ...    13256.807 sec (= 220.947 min)  78.2 %
SCF Gradient evaluation         ...     3236.681 sec (=  53.945 min)  19.1 %
Geometry relaxation             ...       41.178 sec (=   0.686 min)   0.2 %
                             ****ORCA TERMINATED NORMALLY****
TOTAL RUN TIME: 0 days 4 hours 47 minutes 36 seconds 541 msec
