
                                 *****************
                                 * O   R   C   A *
                                 *****************

                                            #,                                       
                                            ###                                      
                                            ####                                     
                                            #####                                    
                                            ######                                   
                                           ########,                                 
                                     ,,################,,,,,                         
                               ,,#################################,,                 
                          ,,##########################################,,             
                       ,#########################################, ''#####,          
                    ,#############################################,,   '####,        
                  ,##################################################,,,,####,       
                ,###########''''           ''''###############################       
              ,#####''   ,,,,##########,,,,          '''####'''          '####       
            ,##' ,,,,###########################,,,                        '##       
           ' ,,###''''                  '''############,,,                           
         ,,##''                                '''############,,,,        ,,,,,,###''
      ,#''                                            '''#######################'''  
     '                                                          ''''####''''         
             ,#######,   #######,   ,#######,      ##                                
            ,#'     '#,  ##    ##  ,#'     '#,    #''#        ,####,   ,####,        
            ##       ##  ##   ,#'  ##            #'  '#       #'       #'  '#        
            ##       ##  #######   ##           ,######,      #####,   #    #        
            '#,     ,#'  ##    ##  '#,     ,#' ,#      #,     #,   #   #,  ,#        
             '#######'   ##     ##  '#######'  #'      '#     '####' # '####'        



                #########################################################
                #                        -***-                          #
                #          Department of theory and spectroscopy        #
                #                                                       #
                #                      Frank Neese                      #
                #                                                       #
                #     Directorship, Architecture, Infrastructure        #
                #                    SHARK, DRIVERS                     #
                #        Core code/Algorithms in most modules           #
                #                                                       #
                #        Max Planck Institute fuer Kohlenforschung      #
                #                Kaiser Wilhelm Platz 1                 #
                #                 D-45470 Muelheim/Ruhr                 #
                #                      Germany                          #
                #                                                       #
                #                  All rights reserved                  #
                #                        -***-                          #
                #########################################################


                         Program Version 6.0.1  -  RELEASE   -


 With contributions from (in alphabetic order):
[Max-Planck-Institut fuer Kohlenforschung]                               
  Daniel Aravena         : Magnetic Suceptibility                        
  Michael Atanasov       : Ab Initio Ligand Field Theory (pilot matlab implementation)
  Alexander A. Auer      : GIAO ZORA, VPT2 properties, NMR spectrum      
  Ute Becker             : All parallelization in ORCA, NUMFREQ, NUMCALC 
  Giovanni Bistoni       : ED, misc. LED, open-shell LED, HFLD           
  Martin Brehm           : Molecular dynamics                            
  Dmytro Bykov           : pre 5.0 version of the SCF Hessian            
  Marcos Casanova-Páez   : Triplet and SCS-CIS(D). UHF-(DLPNO)-IP/EA/STEOM-CCSD. UHF-CVS-IP/STEOM-CCSD   
  Vijay G. Chilkuri      : MRCI spin determinant printing, contributions to CSF-ICE 
  Pauline Colinet        : FMM embedding                                 
  Dipayan Datta          : RHF DLPNO-CCSD density                        
  Achintya Kumar Dutta   : EOM-CC, STEOM-CC                              
  Nicolas Foglia         : Exact transition moments, OPA infrastructure, MCD improvements    
  Dmitry Ganyushin       : Spin-Orbit,Spin-Spin,Magnetic field MRCI      
  Miquel Garcia-Rates    : C-PCM and meta-GGA Hessian, CCSD/C-PCM, Gaussian charge scheme 
  Tiago L. C. Gouveia    : GS-ROHF, GS-ROCIS                             
  Yang Guo               : DLPNO-NEVPT2, F12-NEVPT2, CIM, IAO-localization        
  Andreas Hansen         : Spin unrestricted coupled pair/coupled cluster methods 
  Ingolf Harden          : AUTO-CI MPn and infrastructure                
  Benjamin Helmich-Paris : MC-RPA, TRAH-(SCF,CASSCF), AVAS, COSX integrals, SCF dyn. polar. 
  Lee Huntington         : MR-EOM, pCC                                   
  Robert Izsak           : Overlap fitted RIJCOSX, COSX-SCS-MP3, EOM     
  Riya Kayal             : Wick's Theorem for AUTO-CI, AUTO-CI UHF-CCSDT 
  Emily Kempfer          : AUTO-CI, RHF CISDT and CCSDT                  
  Christian Kollmar      : KDIIS, OOCD, Brueckner-CCSD(T), CCSD density, CASPT2, CASPT2-K, improved NEVPT2 
  Axel Koslowski         : Symmetry handling                             
  Simone Kossmann        : meta-GGA functionals, TD-DFT gradient, OOMP2, (MP2 Hessian; deprecated post 5.0) 
  Lucas Lang             : DCDCAS                                        
  Marvin Lechner         : AUTO-CI (C++ implementation), FIC-MRCC        
  Spencer Leger          : CASSCF response                               
  Dagmar Lenk            : GEPOL surface, SMD, ORCA-2-JSON               
  Dimitrios Liakos       : Extrapolation schemes; Compound Job, initial MDCI parallelization 
  Dimitrios Manganas     : Further ROCIS development; embedding schemes. LFT, Crystal Embedding 
  Dimitrios Pantazis     : SARC Basis sets                               
  Anastasios Papadopoulos: AUTO-CI, single reference methods and gradients 
  Taras Petrenko         : pre 6.0 DFT Hessian and TD-DFT gradient, (ASA, deprecated), ECA, 1-Electron XAS/XES, NRVS 
  Peter Pinski           : DLPNO-MP2, DLPNO-MP2 Gradient                 
  Christoph Reimann      : Effective Core Potentials                     
  Marius Retegan         : Local ZFS, SOC                                
  Christoph Riplinger    : Optimizer, TS searches, QM/MM, DLPNO-CCSD(T), (RO)-DLPNO pert. Triples 
  Michael Roemelt        : Original ROCIS implementation                 
  Masaaki Saitow         : Open-shell DLPNO-CCSD energy and density      
  Barbara Sandhoefer     : DKH picture change effects                    
  Kantharuban Sivalingam : CASSCF convergence/infrastructure, NEVPT2 and variants, FIC-MRCI 
  Bernardo de Souza      : ESD, SOC TD-DFT                               
  Georgi L. Stoychev     : AutoAux, RI-MP2 NMR, DLPNO-MP2 response, X2C  
  Van Anh Tran           : RI-MP2 g-tensors                              
  Willem Van den Heuvel  : Paramagnetic NMR                              
  Zikuan Wang            : NOTCH, Electric field optimization            
  Frank Wennmohs         : Technical directorship and infrastructure     
  Hang Xu                : AUTO-CI-Response properties                   
                                                                         
[FACCTs GmbH]                                                            
  Markus Bursch, Miquel Garcia-Rates, Christoph Riplinger, Bernardo de Souza, Georgi L. Stoychev 
                                                                 
  APM, Basis sets (HGBS, AHGBS, def-TZVP (Ac-Lr), def2-XVPD (La-Lu)), CI-OPT, improved COSX, DLPNO-Multilevel,           
  DOCKER, DRACO, updates on ESD, GOAT, IRC, LR-CPCM, MBIS, meta-GGA TD-DFT gradient, ML-optimized integration grids, 
  MM, NACMEs, nearIR, NEB, NEB-TS, NL-DFT gradient (VV10), 2- and 3-layer-ONIOM, interface openCOSMO-RS, QMMM,   
  Crystal-QMMM, SF, symmetry and pop. for TD-DFT, r2SCAN hybrids, SOLVATOR                                   
                                                                         
[Other institutions]                                                     
  V. Asgeirsson          : NEB                                           
  Christoph Bannwarth    : sTDA-DFT, sTD-DFT, PBEh-3c, B97-3c, D3        
  Sebastian Ehlert       : rSCAN, r2SCAN, r2SCAN-3c, D4, dhf basis sets  
  Marvin Friede          : D4 for Fr, Ra, Ac-Lr                          
  Lars Goerigk           : TD-DFT with DH, B97 family of functionals     
  Stefan Grimme          : VdW corrections, initial TS optimization, DFT functionals, gCP, sTDA/sTD-DF 
  Waldemar Hujo          : DFT-NL                                        
  H. Jonsson             : NEB                                           
  Holger Kruse           : gCP                                           
  Marcel Mueller         : wB97X-3c, vDZP basis set                      
  Hagen Neugebauer       : wr2SCAN                                       
  Tobias Risthaus        : range-separated hybrid DFT                    
  Lukas Wittmann         : regularized MP2, r2SCAN double-hybrids, wr2SCAN        
                                                                         
We gratefully acknowledge several colleagues who have allowed us to      
interface, adapt or use parts of their codes:                            
  Ed Valeev, F. Pavosevic, A. Kumar             : LibInt (2-el integral package), F12 methods 
  Garnet Chan, S. Sharma, J. Yang, R. Olivares  : DMRG                   
  Ulf Ekstrom                                   : XCFun DFT Library      
  Mihaly Kallay                                 : mrcc  (arbitrary order and MRCC methods)
  Frank Weinhold                                : gennbo (NPA and NBO analysis)           
  Simon Mueller                                 : openCOSMO-RS                            
  Christopher J. Cramer and Donald G. Truhlar   : smd solvation model                     
  S Lehtola, MJT Oliveira, MAL Marques          : LibXC Library                           
  Liviu Ungur et al                             : ANISO software                          


 Your calculation uses the libint2 library for the computation of 2-el integrals
 For citations please refer to: http://libint.valeyev.net

 Your ORCA version has been built with support for libXC version: 6.2.2
 For citations please refer to: https://libxc.gitlab.io

 This ORCA versions uses:
   CBLAS   interface :  Fast vector & matrix operations
   LAPACKE interface :  Fast linear algebra routines
   SCALAPACK package :  Parallel linear algebra routines
   Shared memory     :  Shared parallel matrices
   BLAS/LAPACK       :  OpenBLAS 0.3.27  USE64BITINT DYNAMIC_ARCH NO_AFFINITY Zen SINGLE_THREADED
        Core in use  :  Zen
   Copyright (c) 2011-2014, The OpenBLAS Project


XCFun DFT library Copyright 2009-2010 Ulf Ekstrom and contributors.
See http://admol.org/xcfun for more information.
This is free software; see the source code for copying conditions.
There is ABSOLUTELY NO WARRANTY; not even for MERCHANTABILITY or FITNESS FOR A PARTICULAR PURPOSE.
For details see the documentation.
Scientific users of this library should cite U. Ekstrom, L. Visscher, R. Bast, A. J. Thorvaldsen and K. Ruud;
J.Chem.Theor.Comp. 2010, DOI: 10.1021/ct100117s
XCFun Version 0.99 

Warning: RI is on but no J-basis has been assigned. Assigning Def2/J (nothing to worry about!)
================================================================================

----- Orbital basis set information -----
Your calculation utilizes the basis: def2-TZVP(-f)
   F. Weigend and R. Ahlrichs, Phys. Chem. Chem. Phys. 7, 3297 (2005).

----- AuxJ basis set information -----
Your calculation utilizes the auxiliary basis: def2/J
   F. Weigend, Phys. Chem. Chem. Phys. 8, 1057 (2006).

================================================================================
                                        WARNINGS
                       Please study these warnings very carefully!
================================================================================


WARNING: Geometry Optimization
  ===> : Switching off AutoStart
         For restart on a previous wavefunction, please use MOREAD

================================================================================
                                       INPUT FILE
================================================================================
NAME = hbq-dcp-gs.inp
|  1> ! CAM-B3LYP VERYTIGHTOPT FREQ Def2-TZVP(-f) TightSCF CPCM(Water)
|  2> %pal nprocs 128 end
|  3> 
|  4> 
|  5> * xyz 1 1 
|  6>   C          -3.37988090847448     -0.95649081105051      1.59998681255287
|  7>   C          -3.17999799887667     -1.86059864849857      2.64430167262198
|  8>   C          -1.98993217353967     -1.89404362392514      3.31787161496418
|  9>   C          -2.41561420937581     -0.02960321022328      1.30256697656497
| 10>   C          -1.21291520843335      0.03988726578492      2.04766075894985
| 11>   O          -2.46377931672568      0.75961562021732      0.18471891266408
| 12>   C          -0.97325957712692     -0.98634899948477      2.99425982762586
| 13>   C           0.33589046313714     -1.17602943932287      3.53723064388047
| 14>   C           1.37755264823990     -0.46086648249396      3.08347942145132
| 15>   C          -0.14843851574394      0.97792305783381      1.81102213290940
| 16>   C           1.16152362692746      0.63455192009845      2.19294881714814
| 17>   N          -0.32284334822190      2.21780430000059      1.22371647720156
| 18>   C           0.72978596528868      2.90023535538634      0.73466788056481
| 19>   C           2.02168543431411      2.46646875953223      0.89133993390096
| 20>   C           2.23624843854749      1.37948112231162      1.70395161963717
| 21>   C          -3.64817219501633      1.05592639388237     -0.45903841894790
| 22>   O          -4.70173326550074      1.15299944212373      0.13389264701466
| 23>   N          -3.45565805524774      1.24855010460091     -1.76598858496055
| 24>   C          -2.18223628320655      1.10498340434534     -2.45208951960569
| 25>   C          -4.56235117835681      1.70635956305184     -2.58736913568368
| 26>   H          -4.74983461194434      0.98663295056947     -3.38488985826714
| 27>   H          -4.31503314831907      2.66920323556530     -3.03671796875183
| 28>   H          -5.45229091201933      1.81033070411390     -1.97796740590455
| 29>   H          -1.79008491791099      2.08512968914845     -2.72856465946944
| 30>   H          -2.33925311698481      0.52406120925908     -3.36078592491353
| 31>   H          -1.46199313047741      0.59416584134289     -1.82608407460844
| 32>   H          -1.79834235728674     -2.64601230694030      4.07118620387656
| 33>   H          -4.28251201395159     -1.00193048700603      1.01327488733732
| 34>   H          -3.95875122587267     -2.57427385497140      2.87713312366887
| 35>   H           0.47830668534994     -1.97144121301545      4.25640630244820
| 36>   H           2.39092475258424     -0.66687250521773      3.39993396321662
| 37>   H           0.50852125159917      3.84424516142773      0.26051254940747
| 38>   H           2.83208368066840      3.03545093758770      0.46269691086820
| 39>   H           3.24213073047830      1.08170586776902      1.97089848316777
| 40>   P          -1.73704781440349      3.25333330655933      1.55609020946273
| 41>   O          -2.69025310901377      2.59029203078681      2.43326143154311
| 42>   O          -2.09369272862783      3.64309342480563      0.09764467001408
| 43>   O          -1.07540544402641      4.54421079418835      2.13492257958247
| 44>   C          -3.00511866773153      4.74966864773786     -0.21979250818506
| 45>   C          -1.00131449573651      4.84202331996036      3.56592624678095
| 46>   C          -2.63720123665341      5.27902674535506     -1.57629389444561
| 47>   H          -2.90400606220618      5.51126032433336      0.55075903583752
| 48>   H          -4.01201229549617      4.33947342537470     -0.19647202861007
| 49>   H          -1.62459458410103      5.68062583448718     -1.57558543719572
| 50>   H          -3.32753305760613      6.08073341220776     -1.83990710428130
| 51>   H          -2.71121204134382      4.49799969396627     -2.33181936297684
| 52>   C           0.36428916808181      4.51322015705128      4.10563265016351
| 53>   H          -1.78839604788872      4.28667097146189      4.06982656758184
| 54>   H          -1.21683443805426      5.90503174718370      3.63001290344051
| 55>   H           0.40495292322459      4.80250049095804      5.15626049185993
| 56>   H           1.13816822616203      5.05993216707955      3.56797005938269
| 57>   H           0.57115566959242      3.44476319875528      4.03825046770398
| 58> *
| 59> 
| 60>                          ****END OF INPUT****
================================================================================

                       *****************************
                       * Geometry Optimization Run *
                       *****************************

Geometry optimization settings:
Update method            Update   .... BFGS
Choice of coordinates    CoordSys .... (2022) Redundant Internals
Initial Hessian          InHess   .... Almloef's Model
Max. no of cycles        MaxIter  .... 156

Convergence Tolerances:
Energy Change            TolE     ....  2.0000e-07 Eh
Max. Gradient            TolMAXG  ....  3.0000e-05 Eh/bohr
RMS Gradient             TolRMSG  ....  8.0000e-06 Eh/bohr
Max. Displacement        TolMAXD  ....  2.0000e-04 bohr
RMS Displacement         TolRMSD  ....  1.0000e-04 bohr
Strict Convergence                .... False

------------------------------------------------------------------------------
                        ORCA OPTIMIZATION COORDINATE SETUP
------------------------------------------------------------------------------

The optimization will be done in redundant internal coordinates (2022)
Making redundant internal coordinates   ...  (2022 redundants) done
Evaluating the initial hessian          ...  (Almloef) done
Evaluating the coordinates              ...  done
Calculating the B-matrix                .... done
Calculating the G-matrix                .... done
Diagonalizing the G-matrix              .... done
Small eigenvalue found = 1.919e-03
Small eigenvalue found = 5.133e-03
Small eigenvalue found = 5.480e-03
Small eigenvalue found = 7.323e-03
Small eigenvalue found = 1.030e-02
Small eigenvalue found = 1.192e-02
Small eigenvalue found = 1.662e-02
Small eigenvalue found = 2.071e-02
Small eigenvalue found = 2.564e-02
The first mode is                       ....  109
The number of degrees of freedom        ....  150

    -----------------------------------------------------------------
                    Redundant Internal Coordinates


    -----------------------------------------------------------------
         Definition                    Initial Value    Approx d2E/dq
    -----------------------------------------------------------------
      1. B(C   1,C   0)                  1.3957         0.611866   
      2. B(C   2,C   1)                  1.3679         0.677710   
      3. B(C   3,C   0)                  1.3702         0.671989   
      4. B(C   4,C   3)                  1.4165         0.566834   
      5. B(O   5,C   3)                  1.3692         0.603983   
      6. B(C   6,C   4)                  1.4166         0.566711   
      7. B(C   6,C   2)                  1.4008         0.600480   
      8. B(C   7,C   6)                  1.4299         0.539572   
      9. B(C   8,C   7)                  1.3425         0.743808   
     10. B(C   9,C   4)                  1.4384         0.523005   
     11. B(C  10,C   9)                  1.4070         0.586876   
     12. B(C  10,C   8)                  1.4282         0.543061   
     13. B(N  11,C   9)                  1.3830         0.574203   
     14. B(C  12,N  11)                  1.3464         0.656701   
     15. B(C  13,C  12)                  1.3718         0.668116   
     16. B(C  14,C  13)                  1.3740         0.662585   
     17. B(C  14,C  10)                  1.3961         0.610970   
     18. B(C  15,O   5)                  1.3802         0.580066   
     19. B(O  16,C  15)                  1.2128         1.072810   
     20. B(N  17,C  15)                  1.3350         0.684840   
     21. B(C  18,N  17)                  1.4536         0.443004   
     22. B(C  19,N  17)                  1.4522         0.445207   
     23. B(H  20,C  19)                  1.0905         0.359436   
     24. B(H  21,C  19)                  1.0909         0.358860   
     25. B(H  22,C  19)                  1.0836         0.368677   
     26. B(H  23,C  18)                  1.0913         0.358401   
     27. B(H  24,C  18)                  1.0899         0.360249   
     28. B(H  25,C  18)                  1.0824         0.370309   
     29. B(H  26,C   2)                  1.0815         0.371519   
     30. B(H  27,C   0)                  1.0775         0.377001   
     31. B(H  28,C   1)                  1.0817         0.371297   
     32. B(H  29,C   7)                  1.0817         0.371185   
     33. B(H  30,C   8)                  1.0814         0.371608   
     34. B(H  31,C  12)                  1.0793         0.374506   
     35. B(H  32,C  13)                  1.0790         0.374962   
     36. B(H  33,C  14)                  1.0825         0.370207   
     37. B(P  34,N  11)                  1.7840         0.442301   
     38. B(O  35,P  34)                  1.4552         1.480204   
     39. B(O  36,P  34)                  1.5512         1.040424   
     40. B(O  37,P  34)                  1.5618         1.000673   
     41. B(C  38,O  36)                  1.4683         0.419678   
     42. B(C  39,O  37)                  1.4635         0.427115   
     43. B(C  40,C  38)                  1.5019         0.414212   
     44. B(H  41,C  38)                  1.0881         0.362602   
     45. B(H  42,C  38)                  1.0875         0.363433   
     46. B(H  43,C  40)                  1.0893         0.360978   
     47. B(H  44,C  40)                  1.0903         0.359686   
     48. B(H  45,H  21)                  2.5325         0.000344   
     49. B(H  45,C  40)                  1.0892         0.361195   
     50. B(C  46,C  39)                  1.5047         0.409888   
     51. B(H  47,C  39)                  1.0871         0.363931   
     52. B(H  48,C  39)                  1.0865         0.364723   
     53. B(H  49,C  46)                  1.0905         0.359460   
     54. B(H  50,C  46)                  1.0894         0.360851   
     55. B(H  51,C  46)                  1.0904         0.359594   
     56. A(C   1,C   0,C   3)          119.9893         0.439364   
     57. A(C   1,C   0,H  27)          120.0049         0.354867   
     58. A(C   3,C   0,H  27)          119.9911         0.360567   
     59. A(C   0,C   1,C   2)          120.5897         0.440037   
     60. A(C   0,C   1,H  28)          119.0358         0.353951   
     61. A(C   2,C   1,H  28)          120.2813         0.360152   
     62. A(C   1,C   2,H  26)          120.9386         0.360188   
     63. A(C   6,C   2,H  26)          118.8739         0.352863   
     64. A(C   1,C   2,C   6)          120.1214         0.438547   
     65. A(C   4,C   3,O   5)          115.5330         0.422371   
     66. A(C   0,C   3,O   5)          122.8456         0.435462   
     67. A(C   0,C   3,C   4)          121.1003         0.433354   
     68. A(C   6,C   4,C   9)          117.2051         0.414346   
     69. A(C   3,C   4,C   9)          125.0153         0.414362   
     70. A(C   3,C   4,C   6)          117.3616         0.420326   
     71. A(C   3,O   5,C  15)          122.3247         0.421360   
     72. A(C   4,C   6,C   7)          120.3138         0.416650   
     73. A(C   2,C   6,C   7)          119.3932         0.420971   
     74. A(C   2,C   6,C   4)          120.0675         0.424679   
     75. A(C   6,C   7,H  29)          118.0682         0.346500   
     76. A(C   6,C   7,C   8)          120.7544         0.437450   
     77. A(C   8,C   7,H  29)          120.9468         0.365905   
     78. A(C  10,C   8,H  30)          118.0550         0.346942   
     79. A(C   7,C   8,H  30)          121.7815         0.365976   
     80. A(C   7,C   8,C  10)          120.1302         0.437959   
     81. A(C   4,C   9,C  10)          119.0240         0.416931   
     82. A(C  10,C   9,N  11)          116.8376         0.421180   
     83. A(C   4,C   9,N  11)          124.1384         0.412629   
     84. A(C   9,C  10,C  14)          119.4331         0.428674   
     85. A(C   8,C  10,C  14)          120.7454         0.422761   
     86. A(C   8,C  10,C   9)          119.8190         0.419736   
     87. A(C   9,N  11,P  34)          122.7674         0.424767   
     88. A(C   9,N  11,C  12)          120.6672         0.426937   
     89. A(C  12,N  11,P  34)          113.1537         0.435126   
     90. A(N  11,C  12,H  31)          116.2695         0.356531   
     91. A(N  11,C  12,C  13)          122.3115         0.441626   
     92. A(C  13,C  12,H  31)          121.3199         0.359805   
     93. A(C  12,C  13,H  32)          119.6848         0.359880   
     94. A(C  12,C  13,C  14)          117.6955         0.445270   
     95. A(C  14,C  13,H  32)          122.3325         0.359371   
     96. A(C  10,C  14,H  33)          118.8283         0.353687   
     97. A(C  10,C  14,C  13)          120.6010         0.438132   
     98. A(C  13,C  14,H  33)          120.5695         0.358591   
     99. A(O  16,C  15,N  17)          126.3215         0.482007   
    100. A(O   5,C  15,N  17)          111.3363         0.430946   
    101. A(O   5,C  15,O  16)          122.3158         0.467511   
    102. A(C  18,N  17,C  19)          115.5800         0.380830   
    103. A(C  15,N  17,C  19)          119.2942         0.411069   
    104. A(C  15,N  17,C  18)          125.0405         0.410707   
    105. A(N  17,C  18,H  25)          110.8895         0.333103   
    106. A(H  23,C  18,H  24)          108.6187         0.290642   
    107. A(H  23,C  18,H  25)          109.3464         0.291903   
    108. A(N  17,C  18,H  24)          108.6609         0.331586   
    109. A(N  17,C  18,H  23)          110.2232         0.331303   
    110. A(H  24,C  18,H  25)          109.0579         0.292140   
    111. A(H  21,C  19,H  22)          109.4599         0.291759   
    112. A(H  20,C  19,H  22)          109.4766         0.291833   
    113. A(N  17,C  19,H  22)          109.7569         0.333132   
    114. A(H  20,C  19,H  21)          108.6778         0.290598   
    115. A(N  17,C  19,H  21)          109.7813         0.331646   
    116. A(N  17,C  19,H  20)          109.6695         0.331734   
    117. A(N  11,P  34,O  36)           98.7971         0.506368   
    118. A(N  11,P  34,O  35)          111.5352         0.541037   
    119. A(O  36,P  34,O  37)          103.7795         0.591079   
    120. A(O  35,P  34,O  37)          115.5115         0.632785   
    121. A(N  11,P  34,O  37)          102.2973         0.502704   
    122. A(O  35,P  34,O  36)          122.0475         0.637601   
    123. A(P  34,O  36,C  38)          122.3672         0.468581   
    124. A(P  34,O  37,C  39)          123.5056         0.466748   
    125. A(H  41,C  38,H  42)          109.5638         0.291578   
    126. A(C  40,C  38,H  42)          112.2797         0.330386   
    127. A(O  36,C  38,H  42)          106.6079         0.329111   
    128. A(C  40,C  38,H  41)          111.7244         0.330261   
    129. A(O  36,C  38,H  41)          108.4637         0.328987   
    130. A(O  36,C  38,C  40)          107.9887         0.374962   
    131. A(C  46,C  39,H  48)          111.8785         0.330007   
    132. A(O  37,C  39,H  48)          104.2831         0.330261   
    133. A(C  46,C  39,H  47)          112.2830         0.329888   
    134. A(O  37,C  39,H  47)          108.2166         0.330143   
    135. A(O  37,C  39,C  46)          110.6203         0.375420   
    136. A(H  47,C  39,H  48)          109.1983         0.291908   
    137. A(H  44,C  40,H  45)          108.4534         0.290925   
    138. A(H  43,C  40,H  45)          109.1461         0.291090   
    139. A(C  38,C  40,H  45)          110.9240         0.330049   
    140. A(H  43,C  40,H  44)          108.5197         0.290898   
    141. A(C  38,C  40,H  44)          108.8102         0.329821   
    142. A(C  38,C  40,H  43)          110.9201         0.330016   
    143. A(H  50,C  46,H  51)          109.0550         0.290870   
    144. A(H  49,C  46,H  51)          108.2043         0.290694   
    145. A(C  39,C  46,H  51)          111.3539         0.329235   
    146. A(H  49,C  46,H  50)          108.4136         0.290853   
    147. A(C  39,C  46,H  50)          110.9772         0.329425   
    148. A(C  39,C  46,H  49)          108.7498         0.329215   
    149. D(C   2,C   1,C   0,C   3)     -4.5756         0.025865   
    150. D(H  28,C   1,C   0,H  27)     -2.4724         0.025865   
    151. D(C   2,C   1,C   0,H  27)    174.0282         0.025865   
    152. D(H  28,C   1,C   0,C   3)    178.9238         0.025865   
    153. D(C   6,C   2,C   1,H  28)    178.6508         0.032178   
    154. D(H  26,C   2,C   1,C   0)   -174.8140         0.032178   
    155. D(C   6,C   2,C   1,C   0)      2.1939         0.032178   
    156. D(H  26,C   2,C   1,H  28)      1.6429         0.032178   
    157. D(C   4,C   3,C   0,H  27)   -179.2018         0.031596   
    158. D(O   5,C   3,C   0,C   1)    170.7486         0.031596   
    159. D(O   5,C   3,C   0,H  27)     -7.8554         0.031596   
    160. D(C   4,C   3,C   0,C   1)     -0.5979         0.031596   
    161. D(C   6,C   4,C   3,O   5)   -164.1661         0.022030   
    162. D(C   9,C   4,C   3,C   0)   -179.8711         0.022030   
    163. D(C   6,C   4,C   3,C   0)      7.7810         0.022030   
    164. D(C   9,C   4,C   3,O   5)      8.1818         0.022030   
    165. D(C  15,O   5,C   3,C   4)   -163.9888         0.026666   
    166. D(C  15,O   5,C   3,C   0)     24.2198         0.026666   
    167. D(C   7,C   6,C   4,C   9)     -8.5145         0.022020   
    168. D(C   2,C   6,C   4,C   9)    176.9729         0.022020   
    169. D(C   2,C   6,C   4,C   3)    -10.0705         0.022020   
    170. D(C   7,C   6,C   4,C   3)    164.4421         0.022020   
    171. D(C   7,C   6,C   2,H  26)      7.7925         0.024859   
    172. D(C   4,C   6,C   2,H  26)   -177.6443         0.024859   
    173. D(C   4,C   6,C   2,C   1)      5.2864         0.024859   
    174. D(C   7,C   6,C   2,C   1)   -169.2768         0.024859   
    175. D(H  29,C   7,C   6,C   4)   -179.9152         0.019892   
    176. D(H  29,C   7,C   6,C   2)     -5.3657         0.019892   
    177. D(C   8,C   7,C   6,C   4)     -5.3809         0.019892   
    178. D(C   8,C   7,C   6,C   2)    169.1686         0.019892   
    179. D(C  10,C   8,C   7,C   6)      9.2013         0.039393   
    180. D(H  30,C   8,C   7,H  29)      1.4348         0.039393   
    181. D(H  30,C   8,C   7,C   6)   -172.9414         0.039393   
    182. D(C  10,C   8,C   7,H  29)   -176.4226         0.039393   
    183. D(N  11,C   9,C   4,C   6)   -161.4896         0.018659   
    184. D(N  11,C   9,C   4,C   3)     26.1517         0.018659   
    185. D(C  10,C   9,C   4,C   6)     18.4993         0.018659   
    186. D(C  10,C   9,C   4,C   3)   -153.8594         0.018659   
    187. D(C  14,C  10,C   9,N  11)    -14.6416         0.023690   
    188. D(C  14,C  10,C   9,C   4)    165.3687         0.023690   
    189. D(C   8,C  10,C   9,N  11)    164.7874         0.023690   
    190. D(C   8,C  10,C   9,C   4)    -15.2023         0.023690   
    191. D(C  14,C  10,C   8,H  30)      2.6327         0.020158   
    192. D(C  14,C  10,C   8,C   7)   -179.4311         0.020158   
    193. D(C   9,C  10,C   8,H  30)   -176.7886         0.020158   
    194. D(C   9,C  10,C   8,C   7)      1.1476         0.020158   
    195. D(P  34,N  11,C   9,C  10)   -141.2002         0.026411   
    196. D(P  34,N  11,C   9,C   4)     38.7889         0.026411   
    197. D(C  12,N  11,C   9,C  10)     16.5153         0.026411   
    198. D(C  12,N  11,C   9,C   4)   -163.4956         0.026411   
    199. D(H  31,C  12,N  11,P  34)    -22.3854         0.035258   
    200. D(H  31,C  12,N  11,C   9)    177.9062         0.035258   
    201. D(C  13,C  12,N  11,P  34)    154.0360         0.035258   
    202. D(C  13,C  12,N  11,C   9)     -5.6724         0.035258   
    203. D(H  32,C  13,C  12,H  31)     -5.1288         0.031205   
    204. D(H  32,C  13,C  12,N  11)    178.6279         0.031205   
    205. D(C  14,C  13,C  12,H  31)    168.8611         0.031205   
    206. D(C  14,C  13,C  12,N  11)     -7.3822         0.031205   
    207. D(C  10,C  14,C  13,C  12)      8.9392         0.030652   
    208. D(H  33,C  14,C  10,C   9)   -177.4829         0.025785   
    209. D(H  33,C  14,C  10,C   8)      3.0936         0.025785   
    210. D(C  13,C  14,C  10,C   9)      2.1139         0.025785   
    211. D(C  13,C  14,C  10,C   8)   -177.3097         0.025785   
    212. D(H  33,C  14,C  13,H  32)      2.3487         0.030652   
    213. D(H  33,C  14,C  13,C  12)   -171.4711         0.030652   
    214. D(C  10,C  14,C  13,H  32)   -177.2410         0.030652   
    215. D(N  17,C  15,O   5,C   3)   -150.1641         0.024472   
    216. D(O  16,C  15,O   5,C   3)     31.5958         0.024472   
    217. D(C  19,N  17,C  15,O  16)      4.4875         0.038644   
    218. D(C  19,N  17,C  15,O   5)   -173.6664         0.038644   
    219. D(C  18,N  17,C  15,O  16)   -179.0273         0.038644   
    220. D(C  18,N  17,C  15,O   5)      2.8187         0.038644   
    221. D(H  25,C  18,N  17,C  15)     13.7355         0.016736   
    222. D(H  24,C  18,N  17,C  19)    -49.8096         0.016736   
    223. D(H  24,C  18,N  17,C  15)    133.5887         0.016736   
    224. D(H  23,C  18,N  17,C  19)     69.1070         0.016736   
    225. D(H  23,C  18,N  17,C  15)   -107.4947         0.016736   
    226. D(H  22,C  19,N  17,C  15)     -1.3703         0.016905   
    227. D(H  21,C  19,N  17,C  18)    -57.8250         0.016905   
    228. D(H  21,C  19,N  17,C  15)    118.9849         0.016905   
    229. D(H  20,C  19,N  17,C  18)     61.5140         0.016905   
    230. D(H  20,C  19,N  17,C  15)   -121.6761         0.016905   
    231. D(O  37,P  34,N  11,C   9)    120.3334         0.004539   
    232. D(O  36,P  34,N  11,C  12)     67.3963         0.004539   
    233. D(O  36,P  34,N  11,C   9)   -133.3816         0.004539   
    234. D(O  35,P  34,N  11,C  12)   -162.9383         0.004539   
    235. D(O  35,P  34,N  11,C   9)     -3.7161         0.004539   
    236. D(C  38,O  36,P  34,O  37)    -60.2286         0.018565   
    237. D(C  38,O  36,P  34,O  35)     72.3587         0.018565   
    238. D(C  38,O  36,P  34,N  11)   -165.2903         0.018565   
    239. D(C  39,O  37,P  34,O  36)    157.5276         0.017184   
    240. D(C  39,O  37,P  34,O  35)     21.2741         0.017184   
    241. D(C  39,O  37,P  34,N  11)   -100.0788         0.017184   
    242. D(H  42,C  38,O  36,P  34)    -86.0985         0.013881   
    243. D(H  41,C  38,O  36,P  34)     31.8050         0.013881   
    244. D(C  40,C  38,O  36,P  34)    153.0501         0.013881   
    245. D(H  48,C  39,O  37,P  34)   -139.0471         0.014371   
    246. D(H  47,C  39,O  37,P  34)    -22.8785         0.014371   
    247. D(C  46,C  39,O  37,P  34)    100.5125         0.014371   
    248. D(H  44,C  40,C  38,H  42)     60.9044         0.013584   
    249. D(H  44,C  40,C  38,H  41)    -62.6540         0.013584   
    250. D(H  44,C  40,C  38,O  36)    178.1490         0.013584   
    251. D(H  43,C  40,C  38,H  42)   -179.7916         0.013584   
    252. D(H  43,C  40,C  38,H  41)     56.6500         0.013584   
    253. D(H  43,C  40,C  38,O  36)    -62.5470         0.013584   
    254. D(H  50,C  46,C  39,H  48)    -58.3735         0.013309   
    255. D(H  50,C  46,C  39,H  47)    178.4299         0.013309   
    256. D(H  50,C  46,C  39,O  37)     57.4219         0.013309   
    257. D(H  49,C  46,C  39,H  48)     60.7964         0.013309   
    258. D(H  49,C  46,C  39,H  47)    -62.4001         0.013309   
    259. D(H  49,C  46,C  39,O  37)    176.5918         0.013309   
    -----------------------------------------------------------------

Number of atoms                         .... 52
Number of degrees of freedom            .... 259


         *************************************************************
         *                GEOMETRY OPTIMIZATION CYCLE   1            *
         *************************************************************
---------------------------------
CARTESIAN COORDINATES (ANGSTROEM)
---------------------------------
  C     -3.379881   -0.956491    1.599987
  C     -3.179998   -1.860599    2.644302
  C     -1.989932   -1.894044    3.317872
  C     -2.415614   -0.029603    1.302567
  C     -1.212915    0.039887    2.047661
  O     -2.463779    0.759616    0.184719
  C     -0.973260   -0.986349    2.994260
  C      0.335890   -1.176029    3.537231
  C      1.377553   -0.460866    3.083479
  C     -0.148439    0.977923    1.811022
  C      1.161524    0.634552    2.192949
  N     -0.322843    2.217804    1.223716
  C      0.729786    2.900235    0.734668
  C      2.021685    2.466469    0.891340
  C      2.236248    1.379481    1.703952
  C     -3.648172    1.055926   -0.459038
  O     -4.701733    1.152999    0.133893
  N     -3.455658    1.248550   -1.765989
  C     -2.182236    1.104983   -2.452090
  C     -4.562351    1.706360   -2.587369
  H     -4.749835    0.986633   -3.384890
  H     -4.315033    2.669203   -3.036718
  H     -5.452291    1.810331   -1.977967
  H     -1.790085    2.085130   -2.728565
  H     -2.339253    0.524061   -3.360786
  H     -1.461993    0.594166   -1.826084
  H     -1.798342   -2.646012    4.071186
  H     -4.282512   -1.001930    1.013275
  H     -3.958751   -2.574274    2.877133
  H      0.478307   -1.971441    4.256406
  H      2.390925   -0.666873    3.399934
  H      0.508521    3.844245    0.260513
  H      2.832084    3.035451    0.462697
  H      3.242131    1.081706    1.970898
  P     -1.737048    3.253333    1.556090
  O     -2.690253    2.590292    2.433261
  O     -2.093693    3.643093    0.097645
  O     -1.075405    4.544211    2.134923
  C     -3.005119    4.749669   -0.219793
  C     -1.001314    4.842023    3.565926
  C     -2.637201    5.279027   -1.576294
  H     -2.904006    5.511260    0.550759
  H     -4.012012    4.339473   -0.196472
  H     -1.624595    5.680626   -1.575585
  H     -3.327533    6.080733   -1.839907
  H     -2.711212    4.498000   -2.331819
  C      0.364289    4.513220    4.105633
  H     -1.788396    4.286671    4.069827
  H     -1.216834    5.905032    3.630013
  H      0.404953    4.802500    5.156260
  H      1.138168    5.059932    3.567970
  H      0.571156    3.444763    4.038250

----------------------------
CARTESIAN COORDINATES (A.U.)
----------------------------
  NO LB      ZA    FRAG     MASS         X           Y           Z
   0 C     6.0000    0    12.011   -6.387049   -1.807506    3.023537
   1 C     6.0000    0    12.011   -6.009325   -3.516022    4.997006
   2 C     6.0000    0    12.011   -3.760427   -3.579224    6.269869
   3 C     6.0000    0    12.011   -4.564849   -0.055942    2.461495
   4 C     6.0000    0    12.011   -2.292078    0.075376    3.869518
   5 O     8.0000    0    15.999   -4.655868    1.435465    0.349068
   6 C     6.0000    0    12.011   -1.839194   -1.863929    5.658331
   7 C     6.0000    0    12.011    0.634741   -2.222374    6.684397
   8 C     6.0000    0    12.011    2.603197   -0.870911    5.826932
   9 C     6.0000    0    12.011   -0.280508    1.848007    3.422336
  10 C     6.0000    0    12.011    2.194962    1.199129    4.144073
  11 N     7.0000    0    14.007   -0.610086    4.191043    2.312489
  12 C     6.0000    0    12.011    1.379096    5.480651    1.388321
  13 C     6.0000    0    12.011    3.820432    4.660950    1.684388
  14 C     6.0000    0    12.011    4.225897    2.606842    3.220002
  15 C     6.0000    0    12.011   -6.894046    1.995412   -0.867457
  16 O     8.0000    0    15.999   -8.884988    2.178853    0.253020
  17 N     7.0000    0    14.007   -6.530247    2.359418   -3.337235
  18 C     6.0000    0    12.011   -4.123829    2.088116   -4.633778
  19 C     6.0000    0    12.011   -8.621594    3.224552   -4.889419
  20 H     1.0000    0     1.008   -8.975887    1.864466   -6.396515
  21 H     1.0000    0     1.008   -8.154231    5.044063   -5.738565
  22 H     1.0000    0     1.008  -10.303337    3.421029   -3.737817
  23 H     1.0000    0     1.008   -3.382770    3.940324   -5.156240
  24 H     1.0000    0     1.008   -4.420548    0.990332   -6.350965
  25 H     1.0000    0     1.008   -2.762767    1.122811   -3.450799
  26 H     1.0000    0     1.008   -3.398375   -5.000239    7.693427
  27 H     1.0000    0     1.008   -8.092775   -1.893374    1.914812
  28 H     1.0000    0     1.008   -7.480956   -4.864673    5.436994
  29 H     1.0000    0     1.008    0.903869   -3.725484    8.043442
  30 H     1.0000    0     1.008    4.518193   -1.260206    6.424944
  31 H     1.0000    0     1.008    0.960966    7.264571    0.492297
  32 H     1.0000    0     1.008    5.351863    5.736171    0.874370
  33 H     1.0000    0     1.008    6.126739    2.044128    3.724458
  34 P    15.0000    0    30.974   -3.282545    6.147909    2.940584
  35 O     8.0000    0    15.999   -5.083842    4.894943    4.598198
  36 O     8.0000    0    15.999   -3.956506    6.884449    0.184522
  37 O     8.0000    0    15.999   -2.032222    8.587314    4.034419
  38 C     6.0000    0    12.011   -5.678851    8.975573   -0.415348
  39 C     6.0000    0    12.011   -1.892210    9.150098    6.738624
  40 C     6.0000    0    12.011   -4.983588    9.975915   -2.978764
  41 H     1.0000    0     1.008   -5.487776   10.414773    1.040784
  42 H     1.0000    0     1.008   -7.581604    8.200416   -0.371278
  43 H     1.0000    0     1.008   -3.070039   10.734827   -2.977425
  44 H     1.0000    0     1.008   -6.288126   11.490921   -3.476921
  45 H     1.0000    0     1.008   -5.123448    8.499988   -4.406500
  46 C     6.0000    0    12.011    0.688407    8.528750    7.758521
  47 H     1.0000    0     1.008   -3.379579    8.100634    7.690858
  48 H     1.0000    0     1.008   -2.299484   11.158893    6.859730
  49 H     1.0000    0     1.008    0.765250    9.075411    9.743920
  50 H     1.0000    0     1.008    2.150826    9.561886    6.742486
  51 H     1.0000    0     1.008    1.079328    6.509659    7.631187

--------------------------------
INTERNAL COORDINATES (ANGSTROEM)
--------------------------------
 C      0   0   0     0.000000000000     0.00000000     0.00000000
 C      1   0   0     1.395692547177     0.00000000     0.00000000
 C      2   1   0     1.367871230139   120.58974011     0.00000000
 C      1   2   3     1.370178619888   119.98933884   355.42437200
 C      4   1   2     1.416502226498   121.10025369   359.40214748
 O      4   1   2     1.369222602010   122.84563266   170.74855269
 C      3   2   1     1.400805942463   120.12137879     2.19390042
 C      7   3   2     1.429919509792   119.39322249   190.72321499
 C      8   7   3     1.342538019778   120.75436770   169.16859572
 C      5   4   1     1.438408709574   125.01525742   180.12887111
 C     10   5   4     1.407043903222   119.02404940   206.14058245
 N     10   5   4     1.382986071331   124.13839459    26.15169119
 C     12  10   5     1.346443146549   120.66717983   196.50443942
 C     13  12  10     1.371752102256   122.31151662   354.32755292
 C     14  13  12     1.374014977375   117.69547919   352.61775505
 C      6   4   1     1.380221020974   122.32469269    24.21978273
 O     16   6   4     1.212840201724   122.31583907    31.59581964
 N     16   6   4     1.335022218685   111.33627553   209.83589175
 C     18  16   6     1.453598603278   125.04046602     2.81873106
 C     18  16   6     1.452248318329   119.29415703   186.33355395
 H     20  18  16     1.090502516061   109.66948402   238.32385491
 H     20  18  16     1.090939283123   109.78127047   118.98492579
 H     20  18  16     1.083592726066   109.75685639   358.62973854
 H     19  18  16     1.091287283844   110.22321764   252.50526634
 H     19  18  16     1.089887168405   108.66090830   133.58872257
 H     19  18  16     1.082389762928   110.88945197    13.73545872
 H      3   2   1     1.081501931480   120.93855987   185.18604689
 H      1   2   3     1.077514992896   120.00485355   174.02815073
 H      2   1   3     1.081665093034   119.03583878   183.49945728
 H      8   7   3     1.081746688442   118.06823601   354.63429326
 H      9   8   7     1.081436535478   121.78146353   187.05864737
 H     13  12  10     1.079321947100   116.26946575   177.90620702
 H     14  13  12     1.078990675508   119.68480517   178.62794834
 H     15  14  13     1.082464740944   120.56949963   188.52888258
 P     12  10   5     1.784031079743   122.76742814    38.78892277
 O     35  12  10     1.455215935831   111.53522983   356.28391827
 O     35  12  10     1.551184043289    98.79708334   226.61843314
 O     35  12  10     1.561788150501   102.29726723   120.33341218
 C     37  35  12     1.468322964671   122.36720486   194.70974320
 C     38  35  12     1.463541343680   123.50562596   259.92117484
 C     39  37  35     1.501891887764   107.98867670   153.05014975
 H     39  37  35     1.088115491504   108.46373485    31.80502675
 H     39  37  35     1.087491950706   106.60786887   273.90148015
 H     41  39  37     1.089336753762   110.92014763   297.45300162
 H     41  39  37     1.090313499456   108.81019340   178.14899361
 H     41  39  37     1.089173809734   110.92395459    58.92425999
 C     40  38  35     1.504748446892   110.62033746   100.51250004
 H     40  38  35     1.087119650280   108.21660185   337.12154168
 H     40  38  35     1.086527892622   104.28307751   220.95285383
 H     47  40  38     1.090484073389   108.74975974   176.59184569
 H     47  40  38     1.089432824900   110.97719881    57.42188805
 H     47  40  38     1.090382675803   111.35390839   295.73194574

---------------------------
INTERNAL COORDINATES (A.U.)
---------------------------
 C      0   0   0     0.000000000000     0.00000000     0.00000000
 C      1   0   0     2.637476681320     0.00000000     0.00000000
 C      2   1   0     2.584902011434   120.58974011     0.00000000
 C      1   2   3     2.589262346142   119.98933884   355.42437200
 C      4   1   2     2.676801276170   121.10025369   359.40214748
 O      4   1   2     2.587455734174   122.84563266   170.74855269
 C      3   2   1     2.647139598024   120.12137879     2.19390042
 C      7   3   2     2.702156267058   119.39322249   190.72321499
 C      8   7   3     2.537029181757   120.75436770   169.16859572
 C      5   4   1     2.718198529742   125.01525742   180.12887111
 C     10   5   4     2.658927635494   119.02404940   206.14058245
 N     10   5   4     2.613464921843   124.13839459    26.15169119
 C     12  10   5     2.544408801873   120.66717983   196.50443942
 C     13  12  10     2.592235796894   122.31151662   354.32755292
 C     14  13  12     2.596512011145   117.69547919   352.61775505
 C      6   4   1     2.608239733923   122.32469269    24.21978273
 O     16   6   4     2.291935825469   122.31583907    31.59581964
 N     16   6   4     2.522826376014   111.33627553   209.83589175
 C     18  16   6     2.746903268846   125.04046602     2.81873106
 C     18  16   6     2.744351600090   119.29415703   186.33355395
 H     20  18  16     2.060751103707   109.66948402   238.32385491
 H     20  18  16     2.061576473839   109.78127047   118.98492579
 H     20  18  16     2.047693492974   109.75685639   358.62973854
 H     19  18  16     2.062234099896   110.22321764   252.50526634
 H     19  18  16     2.059588265160   108.66090830   133.58872257
 H     19  18  16     2.045420222094   110.88945197    13.73545872
 H      3   2   1     2.043742463805   120.93855987   185.18604689
 H      1   2   3     2.036208241768   120.00485355   174.02815073
 H      2   1   3     2.044050794456   119.03583878   183.49945728
 H      8   7   3     2.044204987431   118.06823601   354.63429326
 H      9   8   7     2.043618883269   121.78146353   187.05864737
 H     13  12  10     2.039622890349   116.26946575   177.90620702
 H     14  13  12     2.038996877765   119.68480517   178.62794834
 H     15  14  13     2.045561910010   120.56949963   188.52888258
 P     12  10   5     3.371330155118   122.76742814    38.78892277
 O     35  12  10     2.749959584439   111.53522983   356.28391827
 O     35  12  10     2.931313025125    98.79708334   226.61843314
 O     35  12  10     2.951351883649   102.29726723   120.33341218
 C     37  35  12     2.774728279376   122.36720486   194.70974320
 C     38  35  12     2.765692325226   123.50562596   259.92117484
 C     39  37  35     2.838164350632   107.98867670   153.05014975
 H     39  37  35     2.056240281020   108.46373485    31.80502675
 H     39  37  35     2.055061959678   106.60786887   273.90148015
 H     41  39  37     2.058548132225   110.92014763   297.45300162
 H     41  39  37     2.060393914089   108.81019340   178.14899361
 H     41  39  37     2.058240212638   110.92395459    58.92425999
 C     40  38  35     2.843562465070   110.62033746   100.51250004
 H     40  38  35     2.054358413833   108.21660185   337.12154168
 H     40  38  35     2.053240153923   104.28307751   220.95285383
 H     47  40  38     2.060716252108   108.74975974   176.59184569
 H     47  40  38     2.058729680365   110.97719881    57.42188805
 H     47  40  38     2.060524638440   111.35390839   295.73194574

---------------------
BASIS SET INFORMATION
---------------------
There are 5 groups of distinct atoms

 Group   1 Type C   : 11s6p2d contracted to 5s3p2d pattern {62111/411/11}
 Group   2 Type O   : 11s6p2d contracted to 5s3p2d pattern {62111/411/11}
 Group   3 Type N   : 11s6p2d contracted to 5s3p2d pattern {62111/411/11}
 Group   4 Type H   : 5s1p contracted to 3s1p pattern {311/1}
 Group   5 Type P   : 14s9p3d contracted to 5s5p2d pattern {73211/51111/21}

Atom   0C    basis set group =>   1
Atom   1C    basis set group =>   1
Atom   2C    basis set group =>   1
Atom   3C    basis set group =>   1
Atom   4C    basis set group =>   1
Atom   5O    basis set group =>   2
Atom   6C    basis set group =>   1
Atom   7C    basis set group =>   1
Atom   8C    basis set group =>   1
Atom   9C    basis set group =>   1
Atom  10C    basis set group =>   1
Atom  11N    basis set group =>   3
Atom  12C    basis set group =>   1
Atom  13C    basis set group =>   1
Atom  14C    basis set group =>   1
Atom  15C    basis set group =>   1
Atom  16O    basis set group =>   2
Atom  17N    basis set group =>   3
Atom  18C    basis set group =>   1
Atom  19C    basis set group =>   1
Atom  20H    basis set group =>   4
Atom  21H    basis set group =>   4
Atom  22H    basis set group =>   4
Atom  23H    basis set group =>   4
Atom  24H    basis set group =>   4
Atom  25H    basis set group =>   4
Atom  26H    basis set group =>   4
Atom  27H    basis set group =>   4
Atom  28H    basis set group =>   4
Atom  29H    basis set group =>   4
Atom  30H    basis set group =>   4
Atom  31H    basis set group =>   4
Atom  32H    basis set group =>   4
Atom  33H    basis set group =>   4
Atom  34P    basis set group =>   5
Atom  35O    basis set group =>   2
Atom  36O    basis set group =>   2
Atom  37O    basis set group =>   2
Atom  38C    basis set group =>   1
Atom  39C    basis set group =>   1
Atom  40C    basis set group =>   1
Atom  41H    basis set group =>   4
Atom  42H    basis set group =>   4
Atom  43H    basis set group =>   4
Atom  44H    basis set group =>   4
Atom  45H    basis set group =>   4
Atom  46C    basis set group =>   1
Atom  47H    basis set group =>   4
Atom  48H    basis set group =>   4
Atom  49H    basis set group =>   4
Atom  50H    basis set group =>   4
Atom  51H    basis set group =>   4
---------------------------------
AUXILIARY/J BASIS SET INFORMATION
---------------------------------
There are 5 groups of distinct atoms

 Group   1 Type C   : 12s5p4d2f1g contracted to 6s4p3d1f1g pattern {711111/2111/211/2/1}
 Group   2 Type O   : 12s5p4d2f1g contracted to 6s4p3d1f1g pattern {711111/2111/211/2/1}
 Group   3 Type N   : 12s5p4d2f1g contracted to 6s4p3d1f1g pattern {711111/2111/211/2/1}
 Group   4 Type H   : 5s2p1d contracted to 3s1p1d pattern {311/2/1}
 Group   5 Type P   : 14s5p5d2f1g contracted to 8s4p3d1f1g pattern {71111111/2111/311/2/1}

Atom   0C    basis set group =>   1
Atom   1C    basis set group =>   1
Atom   2C    basis set group =>   1
Atom   3C    basis set group =>   1
Atom   4C    basis set group =>   1
Atom   5O    basis set group =>   2
Atom   6C    basis set group =>   1
Atom   7C    basis set group =>   1
Atom   8C    basis set group =>   1
Atom   9C    basis set group =>   1
Atom  10C    basis set group =>   1
Atom  11N    basis set group =>   3
Atom  12C    basis set group =>   1
Atom  13C    basis set group =>   1
Atom  14C    basis set group =>   1
Atom  15C    basis set group =>   1
Atom  16O    basis set group =>   2
Atom  17N    basis set group =>   3
Atom  18C    basis set group =>   1
Atom  19C    basis set group =>   1
Atom  20H    basis set group =>   4
Atom  21H    basis set group =>   4
Atom  22H    basis set group =>   4
Atom  23H    basis set group =>   4
Atom  24H    basis set group =>   4
Atom  25H    basis set group =>   4
Atom  26H    basis set group =>   4
Atom  27H    basis set group =>   4
Atom  28H    basis set group =>   4
Atom  29H    basis set group =>   4
Atom  30H    basis set group =>   4
Atom  31H    basis set group =>   4
Atom  32H    basis set group =>   4
Atom  33H    basis set group =>   4
Atom  34P    basis set group =>   5
Atom  35O    basis set group =>   2
Atom  36O    basis set group =>   2
Atom  37O    basis set group =>   2
Atom  38C    basis set group =>   1
Atom  39C    basis set group =>   1
Atom  40C    basis set group =>   1
Atom  41H    basis set group =>   4
Atom  42H    basis set group =>   4
Atom  43H    basis set group =>   4
Atom  44H    basis set group =>   4
Atom  45H    basis set group =>   4
Atom  46C    basis set group =>   1
Atom  47H    basis set group =>   4
Atom  48H    basis set group =>   4
Atom  49H    basis set group =>   4
Atom  50H    basis set group =>   4
Atom  51H    basis set group =>   4


           ************************************************************
           *        Program running with 128 parallel MPI-processes   *
           *              working on a common directory               *
           ************************************************************
------------------------------------------------------------------------------
                             ORCA STARTUP CALCULATIONS
                           -- RI-GTO INTEGRALS CHOSEN --
------------------------------------------------------------------------------
------------------------------------------------------------------------------
                   ___                                                        
                  /   \      - P O W E R E D   B Y -                         
                 /     \                                                     
                 |  |  |   _    _      __       _____    __    __             
                 |  |  |  | |  | |    /  \     |  _  \  |  |  /  |          
                  \  \/   | |  | |   /    \    | | | |  |  | /  /          
                 / \  \   | |__| |  /  /\  \   | |_| |  |  |/  /          
                |  |  |   |  __  | /  /__\  \  |    /   |      \           
                |  |  |   | |  | | |   __   |  |    \   |  |\   \          
                \     /   | |  | | |  |  |  |  | |\  \  |  | \   \       
                 \___/    |_|  |_| |__|  |__|  |_| \__\ |__|  \__/        
                                                                              
                      - O R C A' S   B I G   F R I E N D -                    
                                      &                                       
                       - I N T E G R A L  F E E D E R -                       
                                                                              
 v1 FN, 2020, v2 2021, v3 2022-2024                                           
------------------------------------------------------------------------------


----------------------
SHARK INTEGRAL PACKAGE
----------------------

Number of atoms                             ...     52
Number of basis functions                   ...    822
Number of shells                            ...    378
Maximum angular momentum                    ...      2
Integral batch strategy                     ... SHARK/LIBINT Hybrid
RI-J (if used) integral strategy            ... SPLIT-RIJ (Revised 2003 algorithm where possible)
Printlevel                                  ...      1
Contraction scheme used                     ... SEGMENTED contraction
Prescreening option                         ... SCHWARTZ
   Thresh                                   ... 2.500e-11
   Tcut                                     ... 2.500e-12
   Tpresel                                  ... 2.500e-12 
Coulomb Range Separation                    ... NOT USED
Exchange Range Separation                   ... Long Range
   Mu parameter                             ... 3.300e-01
   Scaling (regular/separated)              ... 1.900e-01 4.600e-01
Multipole approximations                    ... NOT USED
Finite Nucleus Model                        ... NOT USED
CABS basis                                  ... NOT available
Auxiliary Coulomb fitting basis             ... AVAILABLE
   # of basis functions in Aux-J            ...   1638
   # of shells in Aux-J                     ...    542
   Maximum angular momentum in Aux-J        ...      4
Auxiliary J/K fitting basis                 ... NOT available
Auxiliary Correlation fitting basis         ... NOT available
Auxiliary 'external' fitting basis          ... NOT available

Checking pre-screening integrals            ... done (  2.1 sec) Dimension = 378
Check shell pair data                       ... done (  0.4 sec)
Shell pair information
Shell pair cut-off parameter TPreSel        ...   2.5e-12
Total number of shell pairs                 ...     71631
Shell pairs after pre-screening             ...     50069
Total number of primitive shell pairs       ...    234288
Primitive shell pairs kept                  ...    103743
          la=0 lb=0:  14959 shell pairs
          la=1 lb=0:  16724 shell pairs
          la=1 lb=1:   4699 shell pairs
          la=2 lb=0:   7994 shell pairs
          la=2 lb=1:   4555 shell pairs
          la=2 lb=2:   1138 shell pairs

Calculating one electron integrals          ... done (  0.3 sec)
Calculating RI/J V-Matrix + Cholesky decomp.... done (  3.8 sec)
Calculating Nuclear repulsion               ... done (  0.1 sec) ENN=   3153.042110977996 Eh

Diagonalization of the overlap matrix:
Smallest eigenvalue                        ... 4.447e-06
Time for diagonalization                   ...    0.208 sec
Threshold for overlap eigenvalues          ... 1.000e-07
Number of eigenvalues below threshold      ... 0
Time for construction of square roots      ...    0.259 sec
Total time needed                          ...    4.156 sec

-------------------
DFT GRID GENERATION
-------------------

General Integration Accuracy     IntAcc      ... 4.388
Radial Grid Type                 RadialGrid  ... OptM3 with GC (2021)
Angular Grid (max. ang.)         AngularGrid ... 4 (Lebedev-302)
Angular grid pruning method      GridPruning ... 4 (adaptive)
Weight generation scheme         WeightScheme... mBecke (2022)
Basis function cutoff            BFCut       ... 1.0000e-11
Integration weight cutoff        WCut        ... 1.0000e-14
Partially contracted basis set               ... off
Rotationally invariant grid construction     ... off
Angular grids for H and He will be reduced by one unit

Total number of grid points                  ...   244202
Total number of batches                      ...     3842
Average number of points per batch           ...       63
Average number of grid points per atom       ...     4696

--------------------
COSX GRID GENERATION
--------------------

GRIDX 1
-------
General Integration Accuracy     IntAcc      ... 3.816
Radial Grid Type                 RadialGrid  ... OptM3 with GC (2021)
Angular Grid (max. ang.)         AngularGrid ... 1 (Lebedev-50)
Angular grid pruning method      GridPruning ... 4 (adaptive)
Weight generation scheme         WeightScheme... mBecke (2022)
Basis function cutoff            BFCut       ... 1.0000e-11
Integration weight cutoff        WCut        ... 1.0000e-14
Partially contracted basis set               ... on
Rotationally invariant grid construction     ... off
Angular grids for H and He will be reduced by one unit

Total number of grid points                  ...    31981
Total number of batches                      ...      276
Average number of points per batch           ...      115
Average number of grid points per atom       ...      615
UseSFitting                                  ... on

GRIDX 2
-------
General Integration Accuracy     IntAcc      ... 4.020
Radial Grid Type                 RadialGrid  ... OptM3 with GC (2021)
Angular Grid (max. ang.)         AngularGrid ... 2 (Lebedev-110)
Angular grid pruning method      GridPruning ... 4 (adaptive)
Weight generation scheme         WeightScheme... mBecke (2022)
Basis function cutoff            BFCut       ... 1.0000e-11
Integration weight cutoff        WCut        ... 1.0000e-14
Partially contracted basis set               ... on
Rotationally invariant grid construction     ... off
Angular grids for H and He will be reduced by one unit

Total number of grid points                  ...    66326
Total number of batches                      ...      544
Average number of points per batch           ...      121
Average number of grid points per atom       ...     1276
UseSFitting                                  ... on

GRIDX 3
-------
General Integration Accuracy     IntAcc      ... 4.338
Radial Grid Type                 RadialGrid  ... OptM3 with GC (2021)
Angular Grid (max. ang.)         AngularGrid ... 3 (Lebedev-194)
Angular grid pruning method      GridPruning ... 4 (adaptive)
Weight generation scheme         WeightScheme... mBecke (2022)
Basis function cutoff            BFCut       ... 1.0000e-11
Integration weight cutoff        WCut        ... 1.0000e-14
Partially contracted basis set               ... on
Rotationally invariant grid construction     ... off
Angular grids for H and He will be reduced by one unit

Total number of grid points                  ...   145004
Total number of batches                      ...     1158
Average number of points per batch           ...      125
Average number of grid points per atom       ...     2789
UseSFitting                                  ... on
Initializing property integral containers    ... done (  0.9 sec)

SHARK setup successfully completed in  93.6 seconds

Maximum memory used throughout the entire STARTUP-calculation: 105.0 MB


           ************************************************************
           *        Program running with 128 parallel MPI-processes   *
           *              working on a common directory               *
           ************************************************************
-------------------------------------------------------------------------------
                                 ORCA GUESS
                   Start orbitals & Density for SCF / CASSCF
-------------------------------------------------------------------------------

------------
SCF SETTINGS
------------
Hamiltonian:
 Density Functional     Method          .... DFT(GTOs)
 Exchange Functional    Exchange        .... WB88
 Correlation Functional Correlation     .... LYP
 LDA part of GGA corr.  LDAOpt          .... VWN-5
 Gradients option       PostSCFGGA      .... off
 Hybrid DFT is turned on
   Fraction HF Exchange ScalHFX         ....  0.190000
   Scaling of DF-GGA-X  ScalDFX         ....  0.350000
   Scaling of DF-GGA-C  ScalDFC         ....  0.810000
   Scaling of DF-LDA-C  ScalLDAC        ....  1.000000
   Perturbative correction              ....  0.000000
 Long-range corrected/Screened/Range-Separated Hybrid DFT is turned on
   Amount of maximum screened exact exchange              ....  0.460000
   Range separation parameter mu (erf(mu*r12)/r12)        ....  0.330000
 RI-approximation to the Coulomb term is turned on
   Number of AuxJ basis functions       .... 1638
   RIJ-COSX (HFX calculated with COS-X)).... on


General Settings:
 Integral files         IntName         .... hbq-dcp-gs
 Hartree-Fock type      HFTyp           .... RHF
 Total Charge           Charge          ....    1
 Multiplicity           Mult            ....    1
 Number of Electrons    NEL             ....  212
 Basis Dimension        Dim             ....  822
 Nuclear Repulsion      ENuc            ....   3153.0421109780 Eh

Convergence Acceleration:
 AO-DIIS                CNVDIIS         .... on
   Start iteration      DIISMaxIt       ....    12
   Startup error        DIISStart       ....  0.200000
   # of expansion vecs  DIISMaxEq       ....     5
   Bias factor          DIISBfac        ....   1.050
   Max. coefficient     DIISMaxC        ....  10.000
 MO-DIIS                CNVKDIIS        .... off
 Trust-Rad. Augm. Hess. CNVTRAH         .... auto
   Auto Start mean grad. ratio tolernc. ....  1.125000
   Auto Start start iteration           ....    50
   Auto Start num. interpolation iter.  ....    10
   Max. Number of Micro iterations      ....    24
   Max. Number of Macro iterations      .... Maxiter - #DIIS iter
   Number of Davidson start vectors     ....     2
   Converg. threshold    (grad. norm)   ....   1.000e-05
   Grad. Scal. Fac. for Micro threshold ....   0.100
   Minimum threshold for Micro iter.    ....   1.000e-02
   NR start threshold (gradient norm)   ....   1.000e-04
   Initial trust radius                 ....   0.400
   Minimum AH scaling param. (alpha)    ....   1.000
   Maximum AH scaling param. (alpha)    .... 1000.000
   Quad. conv. algorithm                .... NR
   White noise on init. David. guess    .... on
   Maximum white noise                  ....   0.010
   Pseudo random numbers                .... off
   Inactive MOs                         .... canonical
   Orbital update algorithm             .... Taylor
   Preconditioner                       .... Diag
   Full preconditioner red. dimension   ....   250
 SOSCF                  CNVSOSCF        .... on
   Start iteration      SOSCFMaxIt      ....   150
   Startup grad/error   SOSCFStart      ....  0.003300
   Hessian update       SOSCFHessUp     .... L-BFGS
 Level Shifting         CNVShift        .... on
   Level shift para.    LevelShift      ....    0.2500
   Turn off err/grad.   ShiftErr        ....    0.0010
 Zerner damping         CNVZerner       .... off
 Static damping         CNVDamp         .... on
   Fraction old density DampFac         ....    0.7000
   Max. Damping (<1)    DampMax         ....    0.9800
   Min. Damping (>=0)   DampMin         ....    0.0000
   Turn off err/grad.   DampErr         ....    0.1000

SCF Procedure:
 Maximum # iterations   MaxIter         ....   125
 SCF integral mode      SCFMode         .... Direct
   Integral package                     .... SHARK and LIBINT hybrid scheme
 Reset frequency        DirectResetFreq ....    20
 Integral Threshold     Thresh          ....  2.500e-11 Eh
 Primitive CutOff       TCut            ....  2.500e-12 Eh

Convergence Tolerance:
 Convergence Check Mode ConvCheckMode   .... Total+1el-Energy
 Convergence forced     ConvForced      .... 0
 Energy Change          TolE            ....  1.000e-08 Eh
 1-El. energy change                    ....  1.000e-05 Eh
 Orbital Gradient       TolG            ....  1.000e-05
 Orbital Rotation angle TolX            ....  1.000e-05
 DIIS Error             TolErr          ....  5.000e-07

------------------------------
INITIAL GUESS: MODEL POTENTIAL
------------------------------
Loading Hartree-Fock densities                     ... done
Calculating cut-offs                               ... done
Initializing the effective Hamiltonian             ... done
Setting up the integral package (SHARK)            ... done
Starting the Coulomb interaction                   ... done (   2.3 sec)
Making the grid                                    ... done (  15.2 sec)
Mapping shells                                     ... done
Starting the XC term evaluation                    ... done (   0.7 sec)
  promolecular density results
     # of electrons  =    213.001991088
     EX              =   -186.050501452
     EC              =     -7.279777698
     EX+EC           =   -193.330279150
Transforming the Hamiltonian                       ... done (   4.0 sec)
Diagonalizing the Hamiltonian                      ... done (   0.2 sec)
Back transforming the eigenvectors                 ... done (   6.6 sec)
Now organizing SCF variables                       ... done
                      ------------------
                      INITIAL GUESS DONE (  63.0 sec)
                      ------------------
             **** ENERGY FILE WAS UPDATED (hbq-dcp-gs.en.tmp) ****
Finished Guess after 112.7 sec
Maximum memory used throughout the entire GUESS-calculation: 81.7 MB


           ************************************************************
           *        Program running with 128 parallel MPI-processes   *
           *              working on a common directory               *
           ************************************************************

-------------------------------------------------------------------------------------------
                                      ORCA LEAN-SCF
                              memory conserving SCF solver
-------------------------------------------------------------------------------------------

--------------------
CPCM SOLVATION MODEL
--------------------
CPCM parameters:
  Epsilon                                         ...      80.1510
  Refrac                                          ...       1.3328
  Rsolv                                           ...       1.3000
  Surface type                                    ... GAUSSIAN VDW
  Discretization scheme                           ... Constant charge density
    Threshold for H atoms                         ...       5.0000 (charges/Ang^2)
    Threshold for non-H atoms                     ...       5.0000 (charges/Ang^2)
  Epsilon function type                           ...         CPCM
Solvent:                                          ... WATER
Radii:
  Scheme                                          ... Element-dependent radii
  Radius for C  used is    3.8550 Bohr (=   2.0400 Ang.)
  Radius for O  used is    3.4469 Bohr (=   1.8240 Ang.)
  Radius for N  used is    3.5149 Bohr (=   1.8600 Ang.)
  Radius for H  used is    2.4944 Bohr (=   1.3200 Ang.)
  Radius for P  used is    4.0818 Bohr (=   2.1600 Ang.)
Calculating surface                               ...        done! (  0.0s)
Cavity surface points                             ...         4345
Cavity Volume                                     ...    3064.7968
Cavity Surface-area                               ...    1510.4652
Calculating surface distance matrix               ...        done! (  0.4s)
Performing Cholesky decomposition & store         ...        done! (  3.3s)
Overall time for CPCM initialization              ...                 3.7s

----------------------------------------D-I-I-S--------------------------------------------
Iteration    Energy (Eh)           Delta-E    RMSDP     MaxDP     DIISErr   Damp  Time(sec)
-------------------------------------------------------------------------------------------
               ***  Starting incremental Fock matrix formation  ***
    1    -1602.7305703962515508     0.00e+00  1.80e-03  1.33e-01  3.24e-01  0.700 146.6
    2    -1603.0245004028543008    -2.94e-01  1.36e-03  9.91e-02  1.34e-01  0.700 161.9
                               ***Turning on AO-DIIS***
    3    -1603.1513530798379179    -1.27e-01  9.28e-04  9.06e-02  4.52e-02  0.700 149.8
    4    -1603.2283779705599045    -7.70e-02  2.05e-03  2.12e-01  2.76e-02  0.000 142.5
    5    -1603.3968491463378996    -1.68e-01  1.47e-04  8.30e-03  4.92e-03  0.000 149.2
                              *** Initializing SOSCF ***
---------------------------------------S-O-S-C-F--------------------------------------
Iteration    Energy (Eh)           Delta-E    RMSDP     MaxDP     MaxGrad    Time(sec)
--------------------------------------------------------------------------------------
    6    -1603.3973549634260962    -5.06e-04  4.80e-05  2.46e-03  1.99e-03   169.2
               *** Restarting incremental Fock matrix formation ***
    7    -1603.3974110670792470    -5.61e-05  1.38e-04  8.99e-03  4.88e-04   144.0
    8    -1603.3974259454384992    -1.49e-05  7.48e-05  4.58e-03  2.12e-04   149.8
    9    -1603.3974314335478084    -5.49e-06  6.25e-05  4.08e-03  1.05e-04   140.1
   10    -1603.3974326310358265    -1.20e-06  1.14e-05  7.34e-04  1.81e-05   146.7
   11    -1603.3974326916663813    -6.06e-08  8.28e-06  4.98e-04  1.38e-05   147.2
   12    -1603.3974327690507380    -7.74e-08  2.28e-06  2.25e-04  4.89e-06   147.9
   13    -1603.3974327576138421     1.14e-08  1.50e-06  7.25e-05  3.29e-06   146.6
   14    -1603.3974327958108006    -3.82e-08  3.20e-06  3.08e-04  9.65e-07   149.0
                  *** Gradient check signals convergence ***

               *****************************************************
               *                     SUCCESS                       *
               *           SCF CONVERGED AFTER  14 CYCLES          *
               *****************************************************

Recomputing exchange energy using gridx3       ... done (   14.607 sec)
Old exchange energy                            :    -52.665406363 Eh
New exchange energy                            :    -52.665392975 Eh
Exchange energy change after final integration :      0.000013388 Eh
Total energy after final integration           :  -1603.397419408 Eh
             **** ENERGY FILE WAS UPDATED (hbq-dcp-gs.en.tmp) ****

----------------
TOTAL SCF ENERGY
----------------

Total Energy       :      -1603.39741940813474 Eh          -43630.66192 eV

Components:
Nuclear Repulsion  :       3153.04211097799589 Eh           85798.63776 eV
Electronic Energy  :      -4756.34952266596520 Eh         -129426.85045 eV
One Electron Energy:      -8439.42079089345680 Eh         -229648.31481 eV
Two Electron Energy:       3683.07126822749160 Eh          100221.46437 eV
CPCM Dielectric    :         -0.09002110784147 Eh              -2.44960 eV

Virial components:
Potential Energy   :      -3200.90445857411942 Eh          -87101.03845 eV
Kinetic Energy     :       1597.50703916598468 Eh           43470.37653 eV
Virial Ratio       :          2.00368723273058

DFT components:
N(Alpha)           :      105.999987233295 electrons
N(Beta)            :      105.999987233295 electrons
N(Total)           :      211.999974466590 electrons
E(XC)              :     -144.665967735476 Eh       

CPCM Solvation Model Properties:
Surface-charge          :         -1.03462609534007
Corrected charge        :         -1.00000000000000
Outlying charge corr.   :          0.00005972494080 Eh               0.00163 eV
Free-energy (cav+disp)  :  This term is not implemented in the current solvation scheme

---------------
SCF CONVERGENCE
---------------

  Last Energy change         ...    3.8197e-08  Tolerance :   1.0000e-08
  Last MAX-Density change    ...    3.0837e-04  Tolerance :   1.0000e-07
  Last RMS-Density change    ...    3.2036e-06  Tolerance :   5.0000e-09
  Last DIIS Error            ...    1.9940e-03  Tolerance :   5.0000e-07
  Last Orbital Gradient      ...    9.6548e-07  Tolerance :   1.0000e-05
  Last Orbital Rotation      ...    5.2152e-06  Tolerance :   1.0000e-05


----------------
ORBITAL ENERGIES
----------------

  NO   OCC          E(Eh)            E(eV) 
   0   2.0000     -77.293067     -2103.2513 
   1   2.0000     -19.266982      -524.2812 
   2   2.0000     -19.258786      -524.0582 
   3   2.0000     -19.255813      -523.9773 
   4   2.0000     -19.192162      -522.2453 
   5   2.0000     -19.183332      -522.0050 
   6   2.0000     -14.506244      -394.7350 
   7   2.0000     -14.434602      -392.7855 
   8   2.0000     -10.410668      -283.2887 
   9   2.0000     -10.354417      -281.7580 
  10   2.0000     -10.344479      -281.4876 
  11   2.0000     -10.342143      -281.4240 
  12   2.0000     -10.317936      -280.7653 
  13   2.0000     -10.314108      -280.6611 
  14   2.0000     -10.307729      -280.4876 
  15   2.0000     -10.300884      -280.3013 
  16   2.0000     -10.293726      -280.1065 
  17   2.0000     -10.287719      -279.9431 
  18   2.0000     -10.287249      -279.9303 
  19   2.0000     -10.273333      -279.5516 
  20   2.0000     -10.272061      -279.5170 
  21   2.0000     -10.271578      -279.5039 
  22   2.0000     -10.270957      -279.4869 
  23   2.0000     -10.267237      -279.3857 
  24   2.0000     -10.260179      -279.1937 
  25   2.0000     -10.258485      -279.1476 
  26   2.0000     -10.240276      -278.6521 
  27   2.0000     -10.239902      -278.6419 
  28   2.0000      -6.762056      -184.0049 
  29   2.0000      -4.925688      -134.0348 
  30   2.0000      -4.924840      -134.0117 
  31   2.0000      -4.923221      -133.9677 
  32   2.0000      -1.219752       -33.1911 
  33   2.0000      -1.205494       -32.8032 
  34   2.0000      -1.146277       -31.1918 
  35   2.0000      -1.125927       -30.6380 
  36   2.0000      -1.117210       -30.4008 
  37   2.0000      -1.085587       -29.5403 
  38   2.0000      -1.042186       -28.3593 
  39   2.0000      -0.994044       -27.0493 
  40   2.0000      -0.957192       -26.0465 
  41   2.0000      -0.927796       -25.2466 
  42   2.0000      -0.896656       -24.3993 
  43   2.0000      -0.872964       -23.7546 
  44   2.0000      -0.860684       -23.4204 
  45   2.0000      -0.856396       -23.3037 
  46   2.0000      -0.846516       -23.0349 
  47   2.0000      -0.808711       -22.0061 
  48   2.0000      -0.801212       -21.8021 
  49   2.0000      -0.779964       -21.2239 
  50   2.0000      -0.766371       -20.8540 
[...]
133:   3063.10   0.001850    9.35  0.000189  ( 0.012261 -0.004764  0.003935)
134:   3064.68   0.011989   60.59  0.001221  ( 0.006376  0.010726 -0.032635)
135:   3068.54   0.005139   25.97  0.000523  (-0.005603 -0.007481  0.020863)
136:   3103.08   0.003817   19.29  0.000384  (-0.016266  0.009325  0.005686)
137:   3114.11   0.003004   15.18  0.000301  ( 0.009451 -0.011191 -0.009298)
138:   3116.47   0.009836   49.71  0.000985  ( 0.008044  0.028790  0.009558)
139:   3120.38   0.001103    5.57  0.000110  ( 0.002823  0.007822  0.006415)
140:   3133.50   0.004214   21.30  0.000420  (-0.000482 -0.019467 -0.006363)
141:   3138.67   0.004744   23.97  0.000472  ( 0.018807 -0.003539 -0.010266)
142:   3138.76   0.001741    8.80  0.000173  (-0.000567 -0.000981 -0.013109)
143:   3142.72   0.002791   14.11  0.000277  (-0.009638  0.011552  0.007131)
144:   3165.53   0.005272   26.64  0.000520  (-0.014766 -0.014207 -0.009991)
145:   3173.54   0.002969   15.00  0.000292  ( 0.003911  0.016021 -0.004473)
146:   3198.96   0.000396    2.00  0.000039  (-0.005791  0.001656  0.001524)
147:   3209.04   0.000793    4.01  0.000077  ( 0.006268 -0.004818  0.003823)
148:   3210.12   0.000103    0.52  0.000010  (-0.002949 -0.001114  0.000346)
149:   3213.64   0.000411    2.08  0.000040  ( 0.005824  0.002149  0.001185)
150:   3219.40   0.000076    0.38  0.000007  ( 0.002442 -0.000714  0.000943)
151:   3223.84   0.001296    6.55  0.000125  (-0.006060 -0.007867  0.005180)
152:   3228.09   0.000472    2.39  0.000046  (-0.000437  0.005073 -0.004444)
153:   3249.99   0.001703    8.61  0.000164  ( 0.006146 -0.010198  0.004666)
154:   3260.44   0.003789   19.15  0.000363  ( 0.005887  0.016136 -0.008224)
155:   3262.73   0.000596    3.01  0.000057  ( 0.007389  0.001542  0.000150)

* The epsilon (eps) is given for a Dirac delta lineshape.
** The dipole moment derivative (T) already includes vibrational overlap.

The first frequency considered to be a vibration is 6
The total number of vibrations considered is 150


--------------------------
THERMOCHEMISTRY AT 298.15K
--------------------------

Temperature         ...   298.15 K
Pressure            ...     1.00 atm
Total Mass          ...   403.39 AMU
Quasi RRHO          ...     True
Cut-Off Frequency   ...     1.00 cm^-1

Throughout the following assumptions are being made:
  (1) The electronic state is orbitally nondegenerate
  (2) There are no thermally accessible electronically excited states
  (3) Hindered rotations indicated by low frequency modes are not
      treated as such but are treated as vibrations and this may
      cause some error
  (4) All equations used are the standard statistical mechanics
      equations for an ideal gas
  (5) All vibrations are strictly harmonic

freq.      30.69  E(vib)   ...       0.55 
freq.      36.26  E(vib)   ...       0.54 
freq.      37.27  E(vib)   ...       0.54 
freq.      46.21  E(vib)   ...       0.53 
freq.      52.33  E(vib)   ...       0.52 
freq.      59.00  E(vib)   ...       0.51 
freq.      64.80  E(vib)   ...       0.50 
freq.      68.25  E(vib)   ...       0.50 
freq.      75.59  E(vib)   ...       0.49 
freq.      81.83  E(vib)   ...       0.48 
freq.      88.89  E(vib)   ...       0.47 
freq.     102.32  E(vib)   ...       0.46 
freq.     113.67  E(vib)   ...       0.44 
freq.     124.24  E(vib)   ...       0.43 
freq.     137.50  E(vib)   ...       0.42 
freq.     160.80  E(vib)   ...       0.39 
freq.     191.38  E(vib)   ...       0.36 
freq.     205.65  E(vib)   ...       0.35 
freq.     213.52  E(vib)   ...       0.34 
freq.     229.44  E(vib)   ...       0.32 
freq.     246.50  E(vib)   ...       0.31 
freq.     250.20  E(vib)   ...       0.31 
freq.     258.66  E(vib)   ...       0.30 
freq.     262.29  E(vib)   ...       0.29 
freq.     275.52  E(vib)   ...       0.28 
freq.     291.92  E(vib)   ...       0.27 
freq.     308.44  E(vib)   ...       0.26 
freq.     321.73  E(vib)   ...       0.25 
freq.     350.78  E(vib)   ...       0.23 
freq.     369.48  E(vib)   ...       0.21 
freq.     390.88  E(vib)   ...       0.20 
freq.     403.73  E(vib)   ...       0.19 
freq.     421.72  E(vib)   ...       0.18 
freq.     448.45  E(vib)   ...       0.17 
freq.     457.01  E(vib)   ...       0.16 
freq.     481.26  E(vib)   ...       0.15 
freq.     495.24  E(vib)   ...       0.14 
freq.     508.62  E(vib)   ...       0.14 
freq.     520.93  E(vib)   ...       0.13 
freq.     528.25  E(vib)   ...       0.13 
freq.     542.66  E(vib)   ...       0.12 
freq.     552.71  E(vib)   ...       0.12 
freq.     570.72  E(vib)   ...       0.11 
freq.     600.92  E(vib)   ...       0.10 
freq.     633.98  E(vib)   ...       0.09 
freq.     642.64  E(vib)   ...       0.09 
freq.     680.04  E(vib)   ...       0.08 
freq.     725.11  E(vib)   ...       0.06 
freq.     740.29  E(vib)   ...       0.06 
freq.     751.67  E(vib)   ...       0.06 
freq.     765.69  E(vib)   ...       0.06 
freq.     781.42  E(vib)   ...       0.05 
freq.     794.46  E(vib)   ...       0.05 
freq.     806.49  E(vib)   ...       0.05 
freq.     811.62  E(vib)   ...       0.05 
freq.     821.93  E(vib)   ...       0.05 
freq.     827.32  E(vib)   ...       0.04 
freq.     835.59  E(vib)   ...       0.04 
freq.     848.75  E(vib)   ...       0.04 
freq.     873.44  E(vib)   ...       0.04 
freq.     877.87  E(vib)   ...       0.04 
freq.     928.53  E(vib)   ...       0.03 
freq.     934.64  E(vib)   ...       0.03 
freq.     977.09  E(vib)   ...       0.03 
freq.     995.82  E(vib)   ...       0.02 
freq.    1005.77  E(vib)   ...       0.02 
freq.    1011.46  E(vib)   ...       0.02 
freq.    1014.88  E(vib)   ...       0.02 
freq.    1021.61  E(vib)   ...       0.02 
freq.    1036.58  E(vib)   ...       0.02 
freq.    1043.11  E(vib)   ...       0.02 
freq.    1046.38  E(vib)   ...       0.02 
freq.    1065.04  E(vib)   ...       0.02 
freq.    1085.85  E(vib)   ...       0.02 
freq.    1089.68  E(vib)   ...       0.02 
freq.    1125.89  E(vib)   ...       0.01 
freq.    1129.21  E(vib)   ...       0.01 
freq.    1132.05  E(vib)   ...       0.01 
freq.    1134.95  E(vib)   ...       0.01 
freq.    1149.53  E(vib)   ...       0.01 
freq.    1168.65  E(vib)   ...       0.01 
freq.    1170.76  E(vib)   ...       0.01 
freq.    1183.85  E(vib)   ...       0.01 
freq.    1185.27  E(vib)   ...       0.01 
freq.    1186.03  E(vib)   ...       0.01 
freq.    1196.22  E(vib)   ...       0.01 
freq.    1211.69  E(vib)   ...       0.01 
freq.    1229.95  E(vib)   ...       0.01 
freq.    1242.47  E(vib)   ...       0.01 
freq.    1275.93  E(vib)   ...       0.01 
freq.    1290.49  E(vib)   ...       0.01 
freq.    1307.70  E(vib)   ...       0.01 
freq.    1310.59  E(vib)   ...       0.01 
freq.    1322.80  E(vib)   ...       0.01 
freq.    1329.15  E(vib)   ...       0.01 
freq.    1338.73  E(vib)   ...       0.01 
freq.    1363.37  E(vib)   ...       0.01 
freq.    1367.85  E(vib)   ...       0.01 
freq.    1412.08  E(vib)   ...       0.00 
freq.    1414.30  E(vib)   ...       0.00 
freq.    1430.03  E(vib)   ...       0.00 
freq.    1434.37  E(vib)   ...       0.00 
freq.    1438.11  E(vib)   ...       0.00 
freq.    1446.28  E(vib)   ...       0.00 
freq.    1448.99  E(vib)   ...       0.00 
freq.    1468.14  E(vib)   ...       0.00 
freq.    1472.55  E(vib)   ...       0.00 
freq.    1475.55  E(vib)   ...       0.00 
freq.    1482.01  E(vib)   ...       0.00 
freq.    1484.95  E(vib)   ...       0.00 
freq.    1488.33  E(vib)   ...       0.00 
freq.    1489.87  E(vib)   ...       0.00 
freq.    1491.35  E(vib)   ...       0.00 
freq.    1493.20  E(vib)   ...       0.00 
freq.    1498.19  E(vib)   ...       0.00 
freq.    1498.60  E(vib)   ...       0.00 
freq.    1514.60  E(vib)   ...       0.00 
freq.    1516.01  E(vib)   ...       0.00 
freq.    1539.75  E(vib)   ...       0.00 
freq.    1552.10  E(vib)   ...       0.00 
freq.    1588.97  E(vib)   ...       0.00 
freq.    1641.18  E(vib)   ...       0.00 
freq.    1655.34  E(vib)   ...       0.00 
freq.    1681.00  E(vib)   ...       0.00 
freq.    1701.62  E(vib)   ...       0.00 
freq.    1758.52  E(vib)   ...       0.00 
freq.    3060.84  E(vib)   ...       0.00 
freq.    3063.10  E(vib)   ...       0.00 
freq.    3064.68  E(vib)   ...       0.00 
freq.    3068.54  E(vib)   ...       0.00 
freq.    3103.08  E(vib)   ...       0.00 
freq.    3114.11  E(vib)   ...       0.00 
freq.    3116.47  E(vib)   ...       0.00 
freq.    3120.38  E(vib)   ...       0.00 
freq.    3133.50  E(vib)   ...       0.00 
freq.    3138.67  E(vib)   ...       0.00 
freq.    3138.76  E(vib)   ...       0.00 
freq.    3142.72  E(vib)   ...       0.00 
freq.    3165.53  E(vib)   ...       0.00 
freq.    3173.54  E(vib)   ...       0.00 
freq.    3198.96  E(vib)   ...       0.00 
freq.    3209.04  E(vib)   ...       0.00 
freq.    3210.12  E(vib)   ...       0.00 
freq.    3213.64  E(vib)   ...       0.00 
freq.    3219.40  E(vib)   ...       0.00 
freq.    3223.84  E(vib)   ...       0.00 
freq.    3228.09  E(vib)   ...       0.00 
freq.    3249.99  E(vib)   ...       0.00 
freq.    3260.44  E(vib)   ...       0.00 
freq.    3262.73  E(vib)   ...       0.00 

------------
INNER ENERGY
------------

The inner energy is: U= E(el) + E(ZPE) + E(vib) + E(rot) + E(trans)
    E(el)   - is the total energy from the electronic structure calculation
              = E(kin-el) + E(nuc-el) + E(el-el) + E(nuc-nuc)
    E(ZPE)  - the the zero temperature vibrational energy from the frequency calculation
    E(vib)  - the the finite temperature correction to E(ZPE) due to population
              of excited vibrational states
    E(rot)  - is the rotational thermal energy
    E(trans)- is the translational thermal energy

Summary of contributions to the inner energy U:
Electronic energy                ...  -1603.39741932 Eh
Zero point energy                ...      0.42420007 Eh     266.19 kcal/mol
Thermal vibrational correction   ...      0.02463475 Eh      15.46 kcal/mol
Thermal rotational correction    ...      0.00141627 Eh       0.89 kcal/mol
Thermal translational correction ...      0.00141627 Eh       0.89 kcal/mol
-----------------------------------------------------------------------
Total thermal energy                  -1602.94575196 Eh


Summary of corrections to the electronic energy:
(perhaps to be used in another calculation)
Total thermal correction                  0.02746729 Eh      17.24 kcal/mol
Non-thermal (ZPE) correction              0.42420007 Eh     266.19 kcal/mol
-----------------------------------------------------------------------
Total correction                          0.45166736 Eh     283.42 kcal/mol


--------
ENTHALPY
--------

The enthalpy is H = U + kB*T
                kB is Boltzmann's constant
Total thermal energy              ...  -1602.94575196 Eh 
Thermal Enthalpy correction       ...      0.00094421 Eh       0.59 kcal/mol
-----------------------------------------------------------------------
Total Enthalpy                    ...  -1602.94480775 Eh


Note: Only C1 symmetry has been detected, increase convergence thresholds 
      if your molecule has a higher symmetry. Symmetry factor of 1.0 is   
      used for the rotational entropy correction. 
 

Note: Rotational entropy computed according to Herzberg 
Infrared and Raman Spectra, Chapter V,1, Van Nostrand Reinhold, 1945 
Point Group:  C1, Symmetry Number:   1  
Rotational constants in cm-1:     0.007260     0.006139     0.004372 

Vibrational entropy computed according to the QRRHO of S. Grimme
Chem.Eur.J. 2012 18 9955 using a reference frequency of 100.0 cm-1


-------
ENTROPY
-------

The entropy contributions are T*S = T*(S(el)+S(vib)+S(rot)+S(trans))
     S(el)   - electronic entropy
     S(vib)  - vibrational entropy
     S(rot)  - rotational entropy
     S(trans)- translational entropy
The entropies will be listed as multiplied by the temperature to get
units of energy

Electronic entropy                ...      0.00000000 Eh      0.00 kcal/mol
Vibrational entropy               ...      0.04409047 Eh     27.67 kcal/mol
Rotational entropy                ...      0.01680499 Eh     10.55 kcal/mol
Translational entropy             ...      0.02084658 Eh     13.08 kcal/mol
-----------------------------------------------------------------------
Final entropy term                ...      0.08174205 Eh     51.29 kcal/mol

In case the symmetry of your molecule has not been determined correctly
or in case you have a reason to use a different symmetry number we print 
out the resulting rotational entropy values for sn=1,12:

 non-linear molecules -----------------------------------
|  sn= 1 | S(rot)=       0.01680499 Eh     10.55 kcal/mol|
|  sn= 2 | S(rot)=       0.01615054 Eh     10.13 kcal/mol|
|  sn= 3 | S(rot)=       0.01576770 Eh      9.89 kcal/mol|
|  sn= 4 | S(rot)=       0.01549608 Eh      9.72 kcal/mol|
|  sn= 5 | S(rot)=       0.01528539 Eh      9.59 kcal/mol|
|  sn= 6 | S(rot)=       0.01511325 Eh      9.48 kcal/mol|
|  sn= 7 | S(rot)=       0.01496770 Eh      9.39 kcal/mol|
|  sn= 8 | S(rot)=       0.01484162 Eh      9.31 kcal/mol|
|  sn= 9 | S(rot)=       0.01473042 Eh      9.24 kcal/mol|
|  sn=10 | S(rot)=       0.01463094 Eh      9.18 kcal/mol|
|  sn=11 | S(rot)=       0.01454095 Eh      9.12 kcal/mol|
|  sn=12 | S(rot)=       0.01445879 Eh      9.07 kcal/mol|
 linear molecules ---------------------------------------
|  Dinfh | S(rot)=       0.01045501 Eh      6.56 kcal/mol|
|  Cinfv | S(rot)=       0.01110947 Eh      6.97 kcal/mol|
 --------------------------------------------------------


-------------------
GIBBS FREE ENERGY
-------------------

The Gibbs free energy is G = H - T*S

Total enthalpy                    ...  -1602.94480775 Eh 
Total entropy correction          ...     -0.08174205 Eh    -51.29 kcal/mol
-----------------------------------------------------------------------
Final Gibbs free energy         ...  -1603.02654979 Eh

For completeness - the Gibbs free energy minus the electronic energy
G-E(el)                           ...      0.37086953 Eh    232.72 kcal/mol


Maximum memory used throughout the entire PROP-calculation: 665.7 MB

--------------------------------
SUGGESTED CITATIONS FOR THIS RUN
--------------------------------

Below you find a list of papers that are relevant to this ORCA run
We neither can nor want to force you to cite these papers, but we appreciate if you do
You receive ORCA, which is the product of decades of hard work by many enthusiastic individuals, for free
The only thing we kindly ask in return is that you cite our papers,
We deeply appreciate it, if you show your appreciation for ORCA by not just citing the generic ORCA reference.

Please note that relegating all ORCA citations to the supporting information does *not* help us.
SI sections are not indexed - citations you put there will not count into any citation statistics
But we need these citations in order to attract the funding resources that allow us to do what we are doing

Therefore, if you are a happy ORCA user, please consider citing a few of the papers listed below in the main body of your paper

In addition to the list printed below, the program has created the file hbq-dcp-gs.bibtex that contains the list in bibtex format
You can import this file easily into all common literature databanks and citation aid programs


List of essential papers. We consider these as the minimum necessary citations

  1. Neese,F.
     Software update: the ORCA program system, version 5.0
     WIRES Comput. Molec. Sci., 2022 12(1)e1606
     doi.org/10.1002/wcms.1606

List of papers to cite with high priority. The work reported in these papers was absolutely
necessary for this run to complete.
Our perspective: the developers of density functionals and basis sets usually get cited in chemistry papers
Good! But without the algorithms to do something with them, the functionals or basis sets would not do anything.
Hence, in our opinion, the algorithm design and method developments papers are equally worthy of getting cited

  1. Neese,F.
     An improvement of the resolution of the identity approximation for the formation of the Coulomb matrix
     J. Comp. Chem., 2003 24(14)1740-1747
     doi.org/10.1002/jcc.10318
  2. Neese,F.; Wennmohs,F.; Hansen,A.; Becker,U.
     Efficient, approximate and parallel Hartree-Fock and hybrid DFT calculations. A 'chain-of-spheres' algorithm for the Hartree-Fock exchange
     Chem. Phys., 2009 356(1-3)98-109
     doi.org/10.1016/j.chemphys.2008.10.036
  3. Bykov,D.; Petrenko,T.; Izsak,R.; Kossmann,S.; Becker,U.; Valeev,E.; Neese,F.
     Efficient implementation of the analytic second derivatives of Hartree-Fock and hybrid DFT energies: a detailed analysis of different approximations
     Molec. Phys., 2015 113 1961-1977
     doi.org/10.1080/00268976.2015.1025114
  4. Garcia-Rates,M.; Neese,F.
     Efficient implementation of the analytical second derivatives of hartree-fock and hybrid DFT energies within the framework of the conductor-like polarizable continuum model
     J. Comput. Chem., 2019 40 1816-1828
     doi.org/10.1002/jcc.25833
  5. Garcia-Rates,M.; Neese,F.
     Effect of the Solute Cavity on the Solvation Energy and its Derivatives within the Framework of the Gaussian Charge Scheme
     J. Comput. Chem., 2020 41 922-939
     doi.org/10.1002/jcc.26139
  6. Helmich-Paris,B.; de Souza,B.; Neese,F.; Izsák,R.
     An improved chain of spheres for exchange algorithm
     J. Chem. Phys., 2021 155 104109
     doi.org/doi: 10.1063/5.0058766.
  7. Neese,F.
     The SHARK Integral Generation and Digestion System
     J. Comp. Chem., 2022  1-16
     doi.org/10.1002/jcc.26942

List of suggested additional citations. These are papers that are important in the 'surrounding' of 
of this run, or papers that preceded the highly important papers. If you like your results we are grateful for a citation.

  1. Izsak,R.; Neese,F.
     An overlap fitted chain of spheres exchange method
     J. Chem. Phys., 2011 135 144105
     doi.org/10.1063/1.3646921
  2. Izsak,R.; Hansen,A.; Neese,F.
     The resolution of identity and chain of spheres approximations for the LPNO-CCSD singles Fock term
     Molec. Phys., 2012 110 2413-2417
     doi.org/10.1080/00268976.2012.687466
  3. Neese,F.
     The ORCA program system
     WIRES Comput. Molec. Sci., 2012 2(1)73-78
     doi.org/10.1002/wcms.81
  4. Izsak,R.; Neese,F.; Klopper,W.
     Robust fitting techniques in the chain of spheres approximation to the Fock exchange: The role of the complementary space
     J. Chem. Phys., 2013 139 
     doi.org/10.1063/1.4819264
  5. Neese,F.
     Software update: the ORCA program system, version 4.0
     WIRES Comput. Molec. Sci., 2018 8(1)1-6
     doi.org/10.1002/wcms.1327
  6. Neese,F.; Wennmohs,F.; Becker,U.; Riplinger,C.
     The ORCA quantum chemistry program package
     J. Chem. Phys., 2020 152 Art. No. L224108
     doi.org/10.1063/5.0004608

List of optional additional citations

  1. Neese,F.
     Approximate second-order SCF convergence for spin unrestricted wavefunctions
     Chem. Phys. Lett., 2000 325(1-3)93-98
     doi.org/10.1016/s0009-2614(00)00662-x

Timings for individual modules:

Sum of individual times          ...    26134.574 sec (= 435.576 min)
Startup calculation              ...      209.011 sec (=   3.484 min)   0.8 %
SCF iterations                   ...     3105.488 sec (=  51.758 min)  11.9 %
Property integrals               ...     2409.652 sec (=  40.161 min)   9.2 %
SCF Response                     ...    19315.239 sec (= 321.921 min)  73.9 %
Property calculations            ...      976.764 sec (=  16.279 min)   3.7 %
SCF Gradient evaluation          ...      118.208 sec (=   1.970 min)   0.5 %
Geometry relaxation              ...        0.212 sec (=   0.004 min)   0.0 %
                             ****ORCA TERMINATED NORMALLY****
TOTAL RUN TIME: 0 days 7 hours 16 minutes 42 seconds 131 msec
