
                                 *****************
                                 * O   R   C   A *
                                 *****************

                                            #,                                       
                                            ###                                      
                                            ####                                     
                                            #####                                    
                                            ######                                   
                                           ########,                                 
                                     ,,################,,,,,                         
                               ,,#################################,,                 
                          ,,##########################################,,             
                       ,#########################################, ''#####,          
                    ,#############################################,,   '####,        
                  ,##################################################,,,,####,       
                ,###########''''           ''''###############################       
              ,#####''   ,,,,##########,,,,          '''####'''          '####       
            ,##' ,,,,###########################,,,                        '##       
           ' ,,###''''                  '''############,,,                           
         ,,##''                                '''############,,,,        ,,,,,,###''
      ,#''                                            '''#######################'''  
     '                                                          ''''####''''         
             ,#######,   #######,   ,#######,      ##                                
            ,#'     '#,  ##    ##  ,#'     '#,    #''#        ,####,   ,####,        
            ##       ##  ##   ,#'  ##            #'  '#       #'       #'  '#        
            ##       ##  #######   ##           ,######,      #####,   #    #        
            '#,     ,#'  ##    ##  '#,     ,#' ,#      #,     #,   #   #,  ,#        
             '#######'   ##     ##  '#######'  #'      '#     '####' # '####'        



                #########################################################
                #                        -***-                          #
                #          Department of theory and spectroscopy        #
                #                                                       #
                #                      Frank Neese                      #
                #                                                       #
                #     Directorship, Architecture, Infrastructure        #
                #                    SHARK, DRIVERS                     #
                #        Core code/Algorithms in most modules           #
                #                                                       #
                #        Max Planck Institute fuer Kohlenforschung      #
                #                Kaiser Wilhelm Platz 1                 #
                #                 D-45470 Muelheim/Ruhr                 #
                #                      Germany                          #
                #                                                       #
                #                  All rights reserved                  #
                #                        -***-                          #
                #########################################################


                         Program Version 6.0.1  -  RELEASE   -


 With contributions from (in alphabetic order):
[Max-Planck-Institut fuer Kohlenforschung]                               
  Daniel Aravena         : Magnetic Suceptibility                        
  Michael Atanasov       : Ab Initio Ligand Field Theory (pilot matlab implementation)
  Alexander A. Auer      : GIAO ZORA, VPT2 properties, NMR spectrum      
  Ute Becker             : All parallelization in ORCA, NUMFREQ, NUMCALC 
  Giovanni Bistoni       : ED, misc. LED, open-shell LED, HFLD           
  Martin Brehm           : Molecular dynamics                            
  Dmytro Bykov           : pre 5.0 version of the SCF Hessian            
  Marcos Casanova-Páez   : Triplet and SCS-CIS(D). UHF-(DLPNO)-IP/EA/STEOM-CCSD. UHF-CVS-IP/STEOM-CCSD   
  Vijay G. Chilkuri      : MRCI spin determinant printing, contributions to CSF-ICE 
  Pauline Colinet        : FMM embedding                                 
  Dipayan Datta          : RHF DLPNO-CCSD density                        
  Achintya Kumar Dutta   : EOM-CC, STEOM-CC                              
  Nicolas Foglia         : Exact transition moments, OPA infrastructure, MCD improvements    
  Dmitry Ganyushin       : Spin-Orbit,Spin-Spin,Magnetic field MRCI      
  Miquel Garcia-Rates    : C-PCM and meta-GGA Hessian, CCSD/C-PCM, Gaussian charge scheme 
  Tiago L. C. Gouveia    : GS-ROHF, GS-ROCIS                             
  Yang Guo               : DLPNO-NEVPT2, F12-NEVPT2, CIM, IAO-localization        
  Andreas Hansen         : Spin unrestricted coupled pair/coupled cluster methods 
  Ingolf Harden          : AUTO-CI MPn and infrastructure                
  Benjamin Helmich-Paris : MC-RPA, TRAH-(SCF,CASSCF), AVAS, COSX integrals, SCF dyn. polar. 
  Lee Huntington         : MR-EOM, pCC                                   
  Robert Izsak           : Overlap fitted RIJCOSX, COSX-SCS-MP3, EOM     
  Riya Kayal             : Wick's Theorem for AUTO-CI, AUTO-CI UHF-CCSDT 
  Emily Kempfer          : AUTO-CI, RHF CISDT and CCSDT                  
  Christian Kollmar      : KDIIS, OOCD, Brueckner-CCSD(T), CCSD density, CASPT2, CASPT2-K, improved NEVPT2 
  Axel Koslowski         : Symmetry handling                             
  Simone Kossmann        : meta-GGA functionals, TD-DFT gradient, OOMP2, (MP2 Hessian; deprecated post 5.0) 
  Lucas Lang             : DCDCAS                                        
  Marvin Lechner         : AUTO-CI (C++ implementation), FIC-MRCC        
  Spencer Leger          : CASSCF response                               
  Dagmar Lenk            : GEPOL surface, SMD, ORCA-2-JSON               
  Dimitrios Liakos       : Extrapolation schemes; Compound Job, initial MDCI parallelization 
  Dimitrios Manganas     : Further ROCIS development; embedding schemes. LFT, Crystal Embedding 
  Dimitrios Pantazis     : SARC Basis sets                               
  Anastasios Papadopoulos: AUTO-CI, single reference methods and gradients 
  Taras Petrenko         : pre 6.0 DFT Hessian and TD-DFT gradient, (ASA, deprecated), ECA, 1-Electron XAS/XES, NRVS 
  Peter Pinski           : DLPNO-MP2, DLPNO-MP2 Gradient                 
  Christoph Reimann      : Effective Core Potentials                     
  Marius Retegan         : Local ZFS, SOC                                
  Christoph Riplinger    : Optimizer, TS searches, QM/MM, DLPNO-CCSD(T), (RO)-DLPNO pert. Triples 
  Michael Roemelt        : Original ROCIS implementation                 
  Masaaki Saitow         : Open-shell DLPNO-CCSD energy and density      
  Barbara Sandhoefer     : DKH picture change effects                    
  Kantharuban Sivalingam : CASSCF convergence/infrastructure, NEVPT2 and variants, FIC-MRCI 
  Bernardo de Souza      : ESD, SOC TD-DFT                               
  Georgi L. Stoychev     : AutoAux, RI-MP2 NMR, DLPNO-MP2 response, X2C  
  Van Anh Tran           : RI-MP2 g-tensors                              
  Willem Van den Heuvel  : Paramagnetic NMR                              
  Zikuan Wang            : NOTCH, Electric field optimization            
  Frank Wennmohs         : Technical directorship and infrastructure     
  Hang Xu                : AUTO-CI-Response properties                   
                                                                         
[FACCTs GmbH]                                                            
  Markus Bursch, Miquel Garcia-Rates, Christoph Riplinger, Bernardo de Souza, Georgi L. Stoychev 
                                                                 
  APM, Basis sets (HGBS, AHGBS, def-TZVP (Ac-Lr), def2-XVPD (La-Lu)), CI-OPT, improved COSX, DLPNO-Multilevel,           
  DOCKER, DRACO, updates on ESD, GOAT, IRC, LR-CPCM, MBIS, meta-GGA TD-DFT gradient, ML-optimized integration grids, 
  MM, NACMEs, nearIR, NEB, NEB-TS, NL-DFT gradient (VV10), 2- and 3-layer-ONIOM, interface openCOSMO-RS, QMMM,   
  Crystal-QMMM, SF, symmetry and pop. for TD-DFT, r2SCAN hybrids, SOLVATOR                                   
                                                                         
[Other institutions]                                                     
  V. Asgeirsson          : NEB                                           
  Christoph Bannwarth    : sTDA-DFT, sTD-DFT, PBEh-3c, B97-3c, D3        
  Sebastian Ehlert       : rSCAN, r2SCAN, r2SCAN-3c, D4, dhf basis sets  
  Marvin Friede          : D4 for Fr, Ra, Ac-Lr                          
  Lars Goerigk           : TD-DFT with DH, B97 family of functionals     
  Stefan Grimme          : VdW corrections, initial TS optimization, DFT functionals, gCP, sTDA/sTD-DF 
  Waldemar Hujo          : DFT-NL                                        
  H. Jonsson             : NEB                                           
  Holger Kruse           : gCP                                           
  Marcel Mueller         : wB97X-3c, vDZP basis set                      
  Hagen Neugebauer       : wr2SCAN                                       
  Tobias Risthaus        : range-separated hybrid DFT                    
  Lukas Wittmann         : regularized MP2, r2SCAN double-hybrids, wr2SCAN        
                                                                         
We gratefully acknowledge several colleagues who have allowed us to      
interface, adapt or use parts of their codes:                            
  Ed Valeev, F. Pavosevic, A. Kumar             : LibInt (2-el integral package), F12 methods 
  Garnet Chan, S. Sharma, J. Yang, R. Olivares  : DMRG                   
  Ulf Ekstrom                                   : XCFun DFT Library      
  Mihaly Kallay                                 : mrcc  (arbitrary order and MRCC methods)
  Frank Weinhold                                : gennbo (NPA and NBO analysis)           
  Simon Mueller                                 : openCOSMO-RS                            
  Christopher J. Cramer and Donald G. Truhlar   : smd solvation model                     
  S Lehtola, MJT Oliveira, MAL Marques          : LibXC Library                           
  Liviu Ungur et al                             : ANISO software                          


 Your calculation uses the libint2 library for the computation of 2-el integrals
 For citations please refer to: http://libint.valeyev.net

 Your ORCA version has been built with support for libXC version: 6.2.2
 For citations please refer to: https://libxc.gitlab.io

 This ORCA versions uses:
   CBLAS   interface :  Fast vector & matrix operations
   LAPACKE interface :  Fast linear algebra routines
   SCALAPACK package :  Parallel linear algebra routines
   Shared memory     :  Shared parallel matrices
   BLAS/LAPACK       :  OpenBLAS 0.3.27  USE64BITINT DYNAMIC_ARCH NO_AFFINITY Zen SINGLE_THREADED
        Core in use  :  Zen
   Copyright (c) 2011-2014, The OpenBLAS Project


Your calculation utilizes the semiempirical GFN2-xTB method
Please cite in your paper:
C. Bannwarth, Ehlert S., S. Grimme,  J. Chem. Theory Comput., 15, (2019), 1652.
   

================================================================================

================================================================================
                                        WARNINGS
                       Please study these warnings very carefully!
================================================================================


WARNING: Geometry Optimization
  ===> : Switching off AutoStart
         For restart on a previous wavefunction, please use MOREAD

WARNING: Found dipole moment calculation with XTB calculation
  ===> : Switching off dipole moment calculation


================================================================================
                                       INPUT FILE
================================================================================
NAME = HBQ-DCP_GS-GOAT.inp
|  1> !XTB goat ddCOSMO(water)
|  2> 
|  3> * xyz 1 1 
|  4> C  -4.60302609667061979337 1.00765404352467458082 0.69630464773729627836
|  5> C  -5.25898751232179151316 0.23638645409060898839 1.65189527940882241452
|  6> C  -4.53777144003732146871 -0.52257133574740066706 2.54546926861755018479
|  7> C  -3.22726792550890406730 1.11205280610654466678 0.71016307384989785234
|  8> C  -2.47764084750447199923 0.47516161939125622915 1.71966213075371499031
|  9> O  -2.62565600958491351946 1.77801216784146731698 -0.33870095698569202547
| 10> C  -3.14035237883168205641 -0.44994678579993252487 2.57011987759406856924
| 11> C  -2.36036007542766768097 -1.33881533656422901934 3.36934855041028402667
| 12> C  -1.01061368402474771599 -1.37019873595498520302 3.27235002945548103526
| 13> C  -1.06925701228842839896 0.63170082086071488447 1.86311062052905751507
| 14> C  -0.31568550558282099106 -0.38106341817147565409 2.51629845967836640597
| 15> N  -0.42507330325859471465 1.74585492616015391931 1.43658663616340120939
| 16> C  0.90979641924751242232 1.77475226690163268017 1.33816966628529399053
| 17> C  1.68686858523005311916 0.71616818210145838375 1.75313247805147631730
| 18> C  1.07612201762816006578 -0.33375479582920486443 2.42086191108930215421
| 19> C  -1.71187270045703199273 1.06723384081856731420 -1.10432857044192411777
| 20> O  -1.06951565823252914278 0.14230514949908942834 -0.65847719289246697816
| 21> N  -1.62129256456992720814 1.53942830539339259310 -2.34846500259330026594
| 22> C  -2.48985631067960477836 2.53852516186872190218 -2.92508899611288653020
| 23> C  -0.66861505872186466348 0.94180741222376807009 -3.25958963017478531299
| 24> H  -1.19083913780163452856 0.47755858047397192756 -4.09761520518966371185
| 25> H  -0.09878736746505689670 0.18344237494386356202 -2.72859345459783542154
| 26> H  0.00644125610664134270 1.70821940388877480110 -3.64288087380966008055
| 27> H  -1.89424967763565299528 3.36705140273259795336 -3.31143704247504988558
| 28> H  -3.18611882003580371148 2.91123342755720981856 -2.18115945269123479022
| 29> H  -3.04943617837490199562 2.09923081381553799929 -3.75437938474086374541
| 30> H  -5.04002721824923138882 -1.19865732358781706957 3.21973658022848141513
| 31> H  -5.15832583622734031081 1.51738368778864085584 -0.07487608784157098740
| 32> H  -6.33660383642606550580 0.18986165432104420980 1.64453041856990256342
| 33> H  -2.88289119899900914135 -2.04189153694627112401 3.99970653118721708452
| 34> H  -0.42815621558934136015 -2.11615682199516186301 3.78959928714116189852
| 35> H  1.32701221885334841311 2.68987926808860233763 0.94608193108393678905
| 36> H  2.75553725829829332383 0.74770127514089834708 1.61848851804441062896
| 37> H  1.66735624461195142132 -1.11436415160872948071 2.87570199324261288609
| 38> P  -1.20214585554049757654 3.33971300217145472544 1.46079457252986011362
| 39> O  -2.58900828124118032036 3.39204910962358408000 1.89080779794565612129
| 40> O  -0.75781969370789092899 3.83895943955988672158 0.03751003318820263222
| 41> O  -0.18587651072546232389 4.07148483681848816218 2.44262318075786977190
| 42> C  -1.46593951381287301849 4.95646084999865532694 -0.52682791550020802163
| 43> C  -0.55936683153478006236 4.28782696844349153764 3.80645288271160220361
| 44> C  -1.24473053940313471699 6.22894513057018350821 0.26543385890481763223
| 45> H  -2.53107879186440820618 4.71180598086127044866 -0.55991872102886020013
| 46> H  -1.07134651082957743640 5.04679873385157229393 -1.54084284898889944948
| 47> H  -1.68283868911796541390 6.12812118228480784410 1.25693049239429166519
| 48> H  -1.71996420097952884554 7.06230452679771492086 -0.24506769615289589193
| 49> H  -0.18214901822082960048 6.43549046166008320569 0.36718364505029127409
| 50> C  -0.44624651417089472583 3.01438736954959107806 4.62370434168113675355
| 51> H  -1.58570198411875873390 4.66249965634817442606 3.83845449866772714387
| 52> H  0.12704623473763351771 5.05547182658485105833 4.16862563235751526491
| 53> H  0.55463097069264333250 2.59470959414922752728 4.54422469788304717042
| 54> H  -1.17332372146386232359 2.28222433006777780662 4.27363601266496573317
| 55> H  -0.65130498959977300988 3.23462221338720201658 5.66739949125680908537
| 56> **                         ****END OF INPUT****
================================================================================

                       *****************************
                       * Geometry Optimization Run *
                       *****************************


                       *********************************
                       *              GOAT             *
                       * Global Optimization Algorithm *
                       *********************************

Geometry optimization settings:
Update method            Update   .... BFGS
Choice of coordinates    CoordSys .... (2022) Redundant Internals
Initial Hessian          InHess   .... Almloef's Model
Max. no of cycles        MaxIter  .... 156

Convergence Tolerances:
Energy Change            TolE     ....  5.0000e-06 Eh
Max. Gradient            TolMAXG  ....  3.0000e-04 Eh/bohr
RMS Gradient             TolRMSG  ....  1.0000e-04 Eh/bohr
Max. Displacement        TolMAXD  ....  4.0000e-03 bohr
RMS Displacement         TolRMSD  ....  2.0000e-03 bohr
Strict Convergence                .... True

------------------------------------------------------------------------------
                        ORCA OPTIMIZATION COORDINATE SETUP
------------------------------------------------------------------------------

The optimization will be done in redundant internal coordinates (2022)
Making redundant internal coordinates   ...  (2022 redundants) done
Evaluating the initial hessian          ...  (Almloef) done
Evaluating the coordinates              ...  done
Calculating the B-matrix                .... done
Calculating the G-matrix                .... done
Diagonalizing the G-matrix              .... done
Small eigenvalue found = 1.665e-03
Small eigenvalue found = 4.391e-03
Small eigenvalue found = 5.065e-03
Small eigenvalue found = 6.563e-03
Small eigenvalue found = 1.020e-02
Small eigenvalue found = 1.141e-02
Small eigenvalue found = 1.842e-02
Small eigenvalue found = 2.131e-02
Small eigenvalue found = 2.325e-02
Small eigenvalue found = 2.823e-02
The first mode is                       ....  109
The number of degrees of freedom        ....  150

    -----------------------------------------------------------------
                    Redundant Internal Coordinates


    -----------------------------------------------------------------
         Definition                    Initial Value    Approx d2E/dq
    -----------------------------------------------------------------
      1. B(C   1,C   0)                  1.3922         0.619709   
      2. B(C   2,C   1)                  1.3765         0.656659   
      3. B(C   3,C   0)                  1.3798         0.648692   
      4. B(C   4,C   3)                  1.4095         0.581628   
      5. B(O   5,C   3)                  1.3804         0.579646   
      6. B(C   6,C   4)                  1.4207         0.558231   
      7. B(C   6,C   2)                  1.3995         0.603319   
      8. B(C   7,C   6)                  1.4273         0.544750   
      9. B(C   8,C   7)                  1.3536         0.714211   
     10. B(C   9,C   4)                  1.4243         0.550829   
     11. B(C  10,C   9)                  1.4213         0.556843   
     12. B(C  10,C   8)                  1.4258         0.547784   
     13. B(N  11,C   9)                  1.3558         0.634476   
     14. B(C  12,N  11)                  1.3388         0.675389   
     15. B(C  13,C  12)                  1.3772         0.654916   
     16. B(C  14,C  13)                  1.3861         0.633864   
     17. B(C  14,C  10)                  1.3959         0.611450   
     18. B(C  15,O   5)                  1.3879         0.563838   
     19. B(O  16,C  15)                  1.2112         1.079467   
     20. B(N  17,C  15)                  1.3338         0.687898   
     21. B(C  18,N  17)                  1.4440         0.458929   
     22. B(C  19,N  17)                  1.4474         0.453250   
     23. B(H  20,C  19)                  1.0911         0.358628   
     24. B(H  21,C  19)                  1.0871         0.363962   
     25. B(H  22,C  19)                  1.0909         0.358949   
     26. B(H  23,C  18)                  1.0911         0.358667   
     27. B(H  24,C  18)                  1.0850         0.366838   
     28. B(H  25,C  18)                  1.0926         0.356643   
     29. B(H  26,C   2)                  1.0789         0.375110   
     30. B(H  27,C   0)                  1.0784         0.375806   
     31. B(H  28,C   1)                  1.0786         0.375438   
     32. B(H  29,C   7)                  1.0792         0.374653   
     33. B(H  30,C   8)                  1.0785         0.375578   
     34. B(H  31,C  12)                  1.0795         0.374300   
     35. B(H  32,C  13)                  1.0776         0.376912   
     36. B(H  33,C  14)                  1.0797         0.373964   
     37. B(P  34,N  11)                  1.7734         0.459982   
     38. B(O  35,P  34)                  1.4529         1.492626   
     39. B(O  36,P  34)                  1.5724         0.962448   
     40. B(O  37,P  34)                  1.5913         0.897812   
     41. B(C  38,O  36)                  1.4383         0.468607   
     42. B(C  39,O  37)                  1.4305         0.482237   
     43. B(C  40,C  38)                  1.5152         0.394449   
     44. B(H  41,H  24)                  2.5099         0.000374   
     45. B(H  41,C  38)                  1.0934         0.355661   
     46. B(H  42,C  38)                  1.0918         0.357688   
     47. B(H  43,C  40)                  1.0887         0.361884   
     48. B(H  44,C  40)                  1.0867         0.364474   
     49. B(H  45,C  40)                  1.0872         0.363768   
     50. B(C  46,C  39)                  1.5173         0.391348   
     51. B(H  47,C  39)                  1.0931         0.356082   
     52. B(H  48,C  39)                  1.0916         0.357978   
     53. B(H  49,C  46)                  1.0882         0.362475   
     54. B(H  50,C  46)                  1.0896         0.360615   
     55. B(H  51,C  46)                  1.0862         0.365149   
     56. A(C   1,C   0,C   3)          120.3186         0.437580   
     57. A(C   1,C   0,H  27)          120.6695         0.355443   
     58. A(C   3,C   0,H  27)          119.0030         0.358214   
     59. A(C   0,C   1,C   2)          120.2762         0.438545   
     60. A(C   0,C   1,H  28)          119.3353         0.355384   
     61. A(C   2,C   1,H  28)          120.2726         0.358899   
     62. A(C   1,C   2,H  26)          120.4856         0.358845   
     63. A(C   6,C   2,H  26)          119.1006         0.353720   
     64. A(C   1,C   2,C   6)          120.3977         0.436430   
     65. A(C   4,C   3,O   5)          122.0323         0.421214   
     66. A(C   0,C   3,O   5)          117.6079         0.429522   
     67. A(C   0,C   3,C   4)          120.2183         0.432612   
     68. A(C   6,C   4,C   9)          118.1996         0.417064   
     69. A(C   3,C   4,C   9)          123.2554         0.420127   
     70. A(C   3,C   4,C   6)          118.3528         0.421128   
     71. A(C   3,O   5,C  15)          117.3231         0.416172   
     72. A(C   4,C   6,C   7)          119.0656         0.416241   
     73. A(C   2,C   6,C   7)          121.5471         0.422045   
     74. A(C   2,C   6,C   4)          119.2766         0.423892   
     75. A(C   6,C   7,H  29)          117.9160         0.347601   
     76. A(C   6,C   7,C   8)          121.2809         0.435010   
     77. A(C   8,C   7,H  29)          120.6341         0.363950   
     78. A(C  10,C   8,H  30)          118.0930         0.348071   
     79. A(C   7,C   8,H  30)          121.3440         0.364103   
     80. A(C   7,C   8,C  10)          120.5255         0.435445   
     81. A(C   4,C   9,C  10)          119.4873         0.416879   
     82. A(C  10,C   9,N  11)          118.5682         0.424755   
     83. A(C   4,C   9,N  11)          121.9008         0.423930   
     84. A(C   9,C  10,C  14)          118.2336         0.424720   
     85. A(C   8,C  10,C  14)          123.0751         0.423476   
     86. A(C   8,C  10,C   9)          118.6589         0.416468   
     87. A(C   9,N  11,P  34)          121.7415         0.435499   
     88. A(C   9,N  11,C  12)          120.9703         0.436861   
     89. A(C  12,N  11,P  34)          114.7404         0.440435   
     90. A(N  11,C  12,H  31)          115.4906         0.358202   
     91. A(N  11,C  12,C  13)          121.5907         0.442273   
     92. A(C  13,C  12,H  31)          122.8878         0.358551   
     93. A(C  12,C  13,H  32)          119.9629         0.358976   
     94. A(C  12,C  13,C  14)          118.6052         0.440125   
     95. A(C  14,C  13,H  32)          121.2884         0.356987   
     96. A(C  10,C  14,H  33)          119.5170         0.354340   
     97. A(C  10,C  14,C  13)          119.8647         0.434709   
     98. A(C  13,C  14,H  33)          120.6168         0.356511   
     99. A(O  16,C  15,N  17)          125.2896         0.482955   
    100. A(O   5,C  15,N  17)          112.2070         0.429100   
    101. A(O   5,C  15,O  16)          122.4930         0.465615   
    102. A(C  18,N  17,C  19)          115.4819         0.384367   
    103. A(C  15,N  17,C  19)          119.0587         0.412703   
    104. A(C  15,N  17,C  18)          125.2103         0.413616   
    105. A(N  17,C  18,H  25)          109.4485         0.332976   
    106. A(H  23,C  18,H  24)          109.4057         0.291505   
    107. A(H  23,C  18,H  25)          108.4284         0.290217   
    108. A(N  17,C  18,H  24)          110.4804         0.334538   
    109. A(N  17,C  18,H  23)          109.7825         0.333289   
    110. A(H  24,C  18,H  25)          109.2611         0.291246   
    111. A(H  21,C  19,H  22)          109.7167         0.291181   
    112. A(H  20,C  19,H  22)          108.9804         0.290506   
    113. A(N  17,C  19,H  22)          109.7799         0.332645   
    114. A(H  20,C  19,H  21)          109.2211         0.291140   
    115. A(N  17,C  19,H  21)          109.0005         0.333411   
    116. A(N  17,C  19,H  20)          110.1291         0.332595   
    117. A(N  11,P  34,O  36)           98.5799         0.502727   
    118. A(N  11,P  34,O  35)          117.0442         0.545928   
    119. A(O  36,P  34,O  37)          103.4155         0.570341   
    120. A(O  35,P  34,O  37)          114.2313         0.620602   
    121. A(N  11,P  34,O  37)           98.1569         0.496268   
    122. A(O  35,P  34,O  36)          121.7482         0.629033   
    123. A(P  34,O  36,C  38)          117.5630         0.471373   
    124. A(P  34,O  37,C  39)          119.4090         0.467854   
    125. A(H  41,C  38,H  42)          110.0279         0.289968   
    126. A(C  40,C  38,H  42)          111.3068         0.326871   
    127. A(O  36,C  38,H  42)          104.5222         0.334294   
    128. A(C  40,C  38,H  41)          110.2407         0.326565   
    129. A(O  36,C  38,H  41)          108.5201         0.333978   
    130. A(O  36,C  38,C  40)          112.0530         0.378963   
    131. A(C  46,C  39,H  48)          111.3834         0.326489   
    132. A(O  37,C  39,H  48)          104.9806         0.335936   
    133. A(C  46,C  39,H  47)          109.9932         0.326204   
    134. A(O  37,C  39,H  47)          108.9599         0.335639   
    135. A(O  37,C  39,C  46)          111.5377         0.380330   
    136. A(H  47,C  39,H  48)          109.8565         0.290058   
    137. A(H  44,C  40,H  45)          109.0065         0.291856   
    138. A(H  43,C  40,H  45)          109.0058         0.291529   
    139. A(C  38,C  40,H  45)          110.5581         0.327780   
    140. A(H  43,C  40,H  44)          108.8369         0.291618   
    141. A(C  38,C  40,H  44)          109.5450         0.327885   
    142. A(C  38,C  40,H  43)          109.8575         0.327499   
    143. A(H  50,C  46,H  51)          108.6008         0.291542   
    144. A(H  49,C  46,H  51)          108.7843         0.291778   
    145. A(C  39,C  46,H  51)          109.4684         0.327558   
    146. A(H  49,C  46,H  50)          109.3369         0.291205   
    147. A(C  39,C  46,H  50)          109.9468         0.326884   
    148. A(C  39,C  46,H  49)          110.6645         0.327162   
    149. D(C   2,C   1,C   0,C   3)     -5.7466         0.026573   
    150. D(H  28,C   1,C   0,H  27)     -2.9368         0.026573   
    151. D(C   2,C   1,C   0,H  27)    173.1588         0.026573   
    152. D(H  28,C   1,C   0,C   3)    178.1578         0.026573   
    153. D(C   6,C   2,C   1,H  28)   -179.0883         0.030067   
    154. D(H  26,C   2,C   1,C   0)   -173.6714         0.030067   
    155. D(C   6,C   2,C   1,C   0)      4.8529         0.030067   
    156. D(H  26,C   2,C   1,H  28)      2.3874         0.030067   
    157. D(C   4,C   3,C   0,H  27)    178.9159         0.029291   
    158. D(O   5,C   3,C   0,C   1)    173.6036         0.029291   
    159. D(O   5,C   3,C   0,H  27)     -5.3200         0.029291   
    160. D(C   4,C   3,C   0,C   1)     -2.1606         0.029291   
    161. D(C   6,C   4,C   3,O   5)   -164.9363         0.023248   
    162. D(C   9,C   4,C   3,C   0)   -174.5002         0.023248   
    163. D(C   6,C   4,C   3,C   0)     10.6356         0.023248   
    164. D(C   9,C   4,C   3,O   5)      9.9279         0.023248   
    165. D(C  15,O   5,C   3,C   4)     55.1925         0.024435   
    166. D(C  15,O   5,C   3,C   0)   -120.4897         0.024435   
    167. D(C   7,C   6,C   4,C   9)    -10.3081         0.021341   
    168. D(C   2,C   6,C   4,C   9)    173.4578         0.021341   
    169. D(C   2,C   6,C   4,C   3)    -11.4147         0.021341   
    170. D(C   7,C   6,C   4,C   3)    164.8194         0.021341   
    171. D(C   7,C   6,C   2,H  26)      6.2167         0.025108   
    172. D(C   4,C   6,C   2,H  26)   -177.6459         0.025108   
    173. D(C   4,C   6,C   2,C   1)      3.8096         0.025108   
    174. D(C   7,C   6,C   2,C   1)   -172.3279         0.025108   
    175. D(H  29,C   7,C   6,C   4)   -179.2792         0.020288   
    176. D(H  29,C   7,C   6,C   2)     -3.1339         0.020288   
    177. D(C   8,C   7,C   6,C   4)     -3.9770         0.020288   
    178. D(C   8,C   7,C   6,C   2)    172.1683         0.020288   
    179. D(C  10,C   8,C   7,C   6)      9.3839         0.036051   
    180. D(H  30,C   8,C   7,H  29)      2.2911         0.036051   
    181. D(H  30,C   8,C   7,C   6)   -172.8841         0.036051   
    182. D(C  10,C   8,C   7,H  29)   -175.4408         0.036051   
    183. D(N  11,C   9,C   4,C   6)   -158.3377         0.020758   
    184. D(N  11,C   9,C   4,C   3)     26.7908         0.020758   
    185. D(C  10,C   9,C   4,C   6)     19.2218         0.020758   
    186. D(C  10,C   9,C   4,C   3)   -155.6497         0.020758   
    187. D(C  14,C  10,C   9,N  11)    -14.4379         0.021231   
    188. D(C  14,C  10,C   9,C   4)    167.9212         0.021231   
    189. D(C   8,C  10,C   9,N  11)    163.5549         0.021231   
    190. D(C   8,C  10,C   9,C   4)    -14.0860         0.021231   
    191. D(C  14,C  10,C   8,H  30)     -0.2256         0.020522   
    192. D(C  14,C  10,C   8,C   7)    177.5787         0.020522   
    193. D(C   9,C  10,C   8,H  30)   -178.1152         0.020522   
    194. D(C   9,C  10,C   8,C   7)     -0.3109         0.020522   
    195. D(P  34,N  11,C   9,C  10)   -145.4128         0.032718   
    196. D(P  34,N  11,C   9,C   4)     32.1684         0.032718   
    197. D(C  12,N  11,C   9,C  10)     15.5314         0.032718   
    198. D(C  12,N  11,C   9,C   4)   -166.8875         0.032718   
    199. D(H  31,C  12,N  11,P  34)    -20.5307         0.037486   
    200. D(H  31,C  12,N  11,C   9)    177.2707         0.037486   
    201. D(C  13,C  12,N  11,P  34)    157.5031         0.037486   
    202. D(C  13,C  12,N  11,C   9)     -4.6955         0.037486   
    203. D(H  32,C  13,C  12,H  31)     -5.0412         0.029896   
    204. D(H  32,C  13,C  12,N  11)    177.0724         0.029896   
    205. D(C  14,C  13,C  12,H  31)    170.6613         0.029896   
    206. D(C  14,C  13,C  12,N  11)     -7.2251         0.029896   
    207. D(C  10,C  14,C  13,C  12)      7.7733         0.027880   
    208. D(H  33,C  14,C  10,C   9)   -177.5719         0.025828   
    209. D(H  33,C  14,C  10,C   8)      4.5301         0.025828   
    210. D(C  13,C  14,C  10,C   9)      2.8685         0.025828   
    211. D(C  13,C  14,C  10,C   8)   -175.0296         0.025828   
    212. D(H  33,C  14,C  13,H  32)      3.8617         0.027880   
    213. D(H  33,C  14,C  13,C  12)   -171.7814         0.027880   
    214. D(C  10,C  14,C  13,H  32)   -176.5836         0.027880   
    215. D(N  17,C  15,O   5,C   3)    153.4258         0.023050   
    216. D(O  16,C  15,O   5,C   3)    -27.6859         0.023050   
    217. D(C  19,N  17,C  15,O  16)     -1.4179         0.039024   
    218. D(C  19,N  17,C  15,O   5)    177.4333         0.039024   
    219. D(C  18,N  17,C  15,O  16)    172.5751         0.039024   
    220. D(C  18,N  17,C  15,O   5)     -8.5736         0.039024   
    221. D(H  25,C  18,N  17,C  15)   -116.0942         0.017978   
    222. D(H  24,C  18,N  17,C  19)    178.4425         0.017978   
    223. D(H  24,C  18,N  17,C  15)      4.2586         0.017978   
    224. D(H  23,C  18,N  17,C  19)    -60.8100         0.017978   
    225. D(H  23,C  18,N  17,C  15)    125.0060         0.017978   
    226. D(H  22,C  19,N  17,C  15)   -123.5105         0.017528   
    227. D(H  21,C  19,N  17,C  18)   -177.8758         0.017528   
    228. D(H  21,C  19,N  17,C  15)     -3.3108         0.017528   
    229. D(H  20,C  19,N  17,C  18)    -58.0712         0.017528   
    230. D(H  20,C  19,N  17,C  15)    116.4937         0.017528   
    231. D(O  37,P  34,N  11,C   9)    119.3472         0.004796   
    232. D(O  36,P  34,N  11,C  12)     62.2907         0.004796   
    233. D(O  36,P  34,N  11,C   9)   -135.6622         0.004796   
    234. D(O  35,P  34,N  11,C  12)   -165.2943         0.004796   
    235. D(O  35,P  34,N  11,C   9)     -3.2472         0.004796   
    236. D(C  38,O  36,P  34,O  37)    -96.1152         0.015918   
    237. D(C  38,O  36,P  34,O  35)     33.9582         0.015918   
    238. D(C  38,O  36,P  34,N  11)    163.3110         0.015918   
    239. D(C  39,O  37,P  34,O  36)    156.1186         0.013913   
    240. D(C  39,O  37,P  34,O  35)     21.6464         0.013913   
    241. D(C  39,O  37,P  34,N  11)   -102.9794         0.013913   
    242. D(H  42,C  38,O  36,P  34)   -173.7189         0.017308   
    243. D(H  41,C  38,O  36,P  34)    -56.3399         0.017308   
    244. D(C  40,C  38,O  36,P  34)     65.6227         0.017308   
    245. D(H  48,C  39,O  37,P  34)   -162.5347         0.018349   
    246. D(H  47,C  39,O  37,P  34)    -44.9076         0.018349   
    247. D(C  46,C  39,O  37,P  34)     76.7099         0.018349   
    248. D(H  44,C  40,C  38,H  42)     58.1538         0.012358   
    249. D(H  44,C  40,C  38,H  41)    -64.2317         0.012358   
    250. D(H  44,C  40,C  38,O  36)    174.7947         0.012358   
    251. D(H  43,C  40,C  38,H  42)    177.6580         0.012358   
    252. D(H  43,C  40,C  38,H  41)     55.2725         0.012358   
    253. D(H  43,C  40,C  38,O  36)    -65.7011         0.012358   
    254. D(H  50,C  46,C  39,H  48)    177.3024         0.012172   
    255. D(H  50,C  46,C  39,H  47)     55.2543         0.012172   
    256. D(H  50,C  46,C  39,O  37)    -65.7627         0.012172   
    257. D(H  49,C  46,C  39,H  48)    -61.8101         0.012172   
    258. D(H  49,C  46,C  39,H  47)    176.1417         0.012172   
    259. D(H  49,C  46,C  39,O  37)     55.1247         0.012172   
    -----------------------------------------------------------------

Number of atoms                         .... 52
Number of degrees of freedom            .... 259


         *************************************************************
         *                GEOMETRY OPTIMIZATION CYCLE   1            *
         *************************************************************
---------------------------------
CARTESIAN COORDINATES (ANGSTROEM)
---------------------------------
  C    -4.603026    1.007654    0.696305
  C    -5.258988    0.236386    1.651895
  C    -4.537771   -0.522571    2.545469
  C    -3.227268    1.112053    0.710163
  C    -2.477641    0.475162    1.719662
  O    -2.625656    1.778012   -0.338701
  C    -3.140352   -0.449947    2.570120
  C    -2.360360   -1.338815    3.369349
  C    -1.010614   -1.370199    3.272350
  C    -1.069257    0.631701    1.863111
  C    -0.315686   -0.381063    2.516298
  N    -0.425073    1.745855    1.436587
  C     0.909796    1.774752    1.338170
  C     1.686869    0.716168    1.753132
  C     1.076122   -0.333755    2.420862
  C    -1.711873    1.067234   -1.104329
  O    -1.069516    0.142305   -0.658477
  N    -1.621293    1.539428   -2.348465
  C    -2.489856    2.538525   -2.925089
  C    -0.668615    0.941807   -3.259590
  H    -1.190839    0.477559   -4.097615
  H    -0.098787    0.183442   -2.728593
  H     0.006441    1.708219   -3.642881
  H    -1.894250    3.367051   -3.311437
  H    -3.186119    2.911233   -2.181159
  H    -3.049436    2.099231   -3.754379
  H    -5.040027   -1.198657    3.219737
  H    -5.158326    1.517384   -0.074876
  H    -6.336604    0.189862    1.644530
  H    -2.882891   -2.041892    3.999707
  H    -0.428156   -2.116157    3.789599
  H     1.327012    2.689879    0.946082
  H     2.755537    0.747701    1.618489
  H     1.667356   -1.114364    2.875702
  P    -1.202146    3.339713    1.460795
  O    -2.589008    3.392049    1.890808
  O    -0.757820    3.838959    0.037510
  O    -0.185877    4.071485    2.442623
  C    -1.465940    4.956461   -0.526828
  C    -0.559367    4.287827    3.806453
  C    -1.244731    6.228945    0.265434
  H    -2.531079    4.711806   -0.559919
  H    -1.071347    5.046799   -1.540843
  H    -1.682839    6.128121    1.256930
  H    -1.719964    7.062305   -0.245068
  H    -0.182149    6.435490    0.367184
  C    -0.446247    3.014387    4.623704
  H    -1.585702    4.662500    3.838454
  H     0.127046    5.055472    4.168626
  H     0.554631    2.594710    4.544225
  H    -1.173324    2.282224    4.273636
  H    -0.651305    3.234622    5.667399

----------------------------
CARTESIAN COORDINATES (A.U.)
----------------------------
  NO LB    ZA    FRAG    MASS        X           Y           Z
   0 C   6.0000    1    12.011   -8.698459    1.904190    1.315825
   1 C   6.0000    1    12.011   -9.938046    0.446706    3.121630
   2 C   6.0000    1    12.011   -8.575145   -0.987517    4.810240
   3 C   6.0000    1    12.011   -6.098653    2.101475    1.342014
   4 C   6.0000    1    12.011   -4.682063    0.897925    3.249690
   5 O   8.0000    1    15.999   -4.961771    3.359956   -0.640052
   6 C   6.0000    1    12.011   -5.934406   -0.850276    4.856823
   7 C   6.0000    1    12.011   -4.460434   -2.529994    6.367146
   8 C   6.0000    1    12.011   -1.909783   -2.589300    6.183845
   9 C   6.0000    1    12.011   -2.020603    1.193742    3.520769
  10 C   6.0000    1    12.011   -0.596559   -0.720105    4.755115
  11 N   7.0000    1    14.007   -0.803272    3.299188    2.714755
  12 C   6.0000    1    12.011    1.719266    3.353796    2.528774
  13 C   6.0000    1    12.011    3.187720    1.353362    3.312940
  14 C   6.0000    1    12.011    2.033576   -0.630705    4.574766
  15 C   6.0000    1    12.011   -3.234971    2.016780   -2.086879
  16 O   8.0000    1    15.999   -2.021092    0.268918   -1.244342
  17 N   7.0000    1    14.007   -3.063799    2.909098   -4.437956
  18 C   6.0000    1    12.011   -4.705147    4.797117   -5.527617
  19 C   6.0000    1    12.011   -1.263499    1.779758   -6.159732
  20 H   1.0000    1     1.008   -2.250360    0.902455   -7.743371
  21 H   1.0000    1     1.008   -0.186681    0.346656   -5.156294
  22 H   1.0000    1     1.008    0.012172    3.228067   -6.884047
  23 H   1.0000    1     1.008   -3.579613    6.362805   -6.257709
  24 H   1.0000    1     1.008   -6.020892    5.501434   -4.121794
  25 H   1.0000    1     1.008   -5.762599    3.966971   -7.094749
  26 H   1.0000    1     1.008   -9.524271   -2.265134    6.084420
  27 H   1.0000    1     1.008   -9.747823    2.867440   -0.141495
  28 H   1.0000    1     1.008  -11.974446    0.358787    3.107712
  29 H   1.0000    1     1.008   -5.447875   -3.858616    7.558350
  30 H   1.0000    1     1.008   -0.809098   -3.998957    7.161305
  31 H   1.0000    1     1.008    2.507690    5.083135    1.787836
  32 H   1.0000    1     1.008    5.207211    1.412951    3.058500
  33 H   1.0000    1     1.008    3.150847   -2.105843    5.434289
  34 P  15.0000    1    30.974   -2.271726    6.311143    2.760502
  35 O   8.0000    1    15.999   -4.892517    6.410044    3.573109
  36 O   8.0000    1    15.999   -1.432072    7.254582    0.070884
  37 O   8.0000    1    15.999   -0.351256    7.693991    4.615889
  38 C   6.0000    1    12.011   -2.770224    9.366354   -0.995560
  39 C   6.0000    1    12.011   -1.057050    8.102819    7.193153
  40 C   6.0000    1    12.011   -2.352200   11.771000    0.501597
  41 H   1.0000    1     1.008   -4.783046    8.904023   -1.058093
  42 H   1.0000    1     1.008   -2.024551    9.537067   -2.911771
  43 H   1.0000    1     1.008   -3.180104   11.580471    2.375254
  44 H   1.0000    1     1.008   -3.250261   13.345821   -0.463111
  45 H   1.0000    1     1.008   -0.344212   12.161315    0.693877
  46 C   6.0000    1    12.011   -0.843284    5.696367    8.737535
  47 H   1.0000    1     1.008   -2.996542    8.810847    7.253628
  48 H   1.0000    1     1.008    0.240083    9.553457    7.877561
  49 H   1.0000    1     1.008    1.048101    4.903291    8.587340
  50 H   1.0000    1     1.008   -2.217261    4.312779    8.076002
  51 H   1.0000    1     1.008   -1.230788    6.112550   10.709833

      -----------------------------------------------------------      
     |                   =====================                   |     
     |                           x T B                           |     
     |                   =====================                   |     
     |                         S. Grimme                         |     
     |          Mulliken Center for Theoretical Chemistry        |     
     |                    University of Bonn                     |     
      -----------------------------------------------------------      

   * xtb version 6.7.1 (edcfbbe) compiled by 'albert@albert-system' on 2024-07-22

   xtb is free software: you can redistribute it and/or modify it under
   the terms of the GNU Lesser General Public License as published by
   the Free Software Foundation, either version 3 of the License, or
   (at your option) any later version.
   
   xtb is distributed in the hope that it will be useful,
   but WITHOUT ANY WARRANTY; without even the implied warranty of
   MERCHANTABILITY or FITNESS FOR A PARTICULAR PURPOSE.  See the
   GNU Lesser General Public License for more details.
   
   Cite this work as:
   * C. Bannwarth, E. Caldeweyher, S. Ehlert, A. Hansen, P. Pracht,
     J. Seibert, S. Spicher, S. Grimme, WIREs Comput. Mol. Sci., 2020, 11,
     e01493. DOI: 10.1002/wcms.1493
   
   for GFN2-xTB:
   * C. Bannwarth, S. Ehlert and S. Grimme., J. Chem. Theory Comput., 2019,
     15, 1652-1671. DOI: 10.1021/acs.jctc.8b01176
   for GFN1-xTB:
   * S. Grimme, C. Bannwarth, P. Shushkov, J. Chem. Theory Comput., 2017,
     13, 1989-2009. DOI: 10.1021/acs.jctc.7b00118
   for GFN0-xTB:
   * P. Pracht, E. Caldeweyher, S. Ehlert, S. Grimme, ChemRxiv, 2019, preprint.
     DOI: 10.26434/chemrxiv.8326202.v1
   for GFN-FF:
   * S. Spicher and S. Grimme, Angew. Chem. Int. Ed., 2020, 59, 15665-15673.
     DOI: 10.1002/anie.202004239
   
   for ALPB and GBSA implicit solvation:
   * S. Ehlert, M. Stahn, S. Spicher, S. Grimme, J. Chem. Theory Comput.,
     2021, 17, 4250-4261. DOI: 10.1021/acs.jctc.1c00471
   
   for ddCOSMO and CPCM-X implicit solvation:
   * M. Stahn, S. Ehlert, S. Grimme, J. Phys. Chem. A,
     2023, XX, XXXX-XXXX. DOI: 10.1021/acs.jpca.3c04382
   
   for DFT-D4:
   * E. Caldeweyher, C. Bannwarth and S. Grimme, J. Chem. Phys., 2017,
     147, 034112. DOI: 10.1063/1.4993215
   * E. Caldeweyher, S. Ehlert, A. Hansen, H. Neugebauer, S. Spicher,
     C. Bannwarth and S. Grimme, J. Chem. Phys., 2019, 150, 154122.
     DOI: 10.1063/1.5090222
   * E. Caldeweyher, J.-M. Mewes, S. Ehlert and S. Grimme, Phys. Chem. Chem. Phys.
     2020, 22, 8499-8512. DOI: 10.1039/D0CP00502A
   
   for sTDA-xTB:
   * S. Grimme and C. Bannwarth, J. Chem. Phys., 2016, 145, 054103.
     DOI: 10.1063/1.4959605
   
   in the mass-spec context:
   * V. Asgeirsson, C. Bauer and S. Grimme, Chem. Sci., 2017, 8, 4879.
     DOI: 10.1039/c7sc00601b
   * J. Koopman and S. Grimme, ACS Omega 2019, 4, 12, 15120-15133.
     DOI: 10.1021/acsomega.9b02011
   
   for metadynamics refer to:
   * S. Grimme, J. Chem. Theory Comput., 2019, 155, 2847-2862
     DOI: 10.1021/acs.jctc.9b00143
   
   for SPH calculations refer to:
   * S. Spicher and S. Grimme, J. Chem. Theory Comput., 2021, 17, 1701-1714
     DOI: 10.1021/acs.jctc.0c01306
   
   for ONIOM refer to:
   * C. Plett, A. Katbashev, S. Ehlert, S. Grimme, M. Bursch,
     Phys. Chem. Chem. Phys., 2023, 25, 17860-17868. DOI: 10.1039/D3CP02178E
   
   for DIPRO refer to:
   * J. Kohn, N. Gildemeister, S. Grimme, D. Fazzi, A. Hansen,
     J. Chem. Phys., 2023, just accepted.
   
   for PTB refer to:
   * S. Grimme, M. Mueller, A. Hansen, J. Chem. Phys., 2023, 158, 124111.
     DOI: 10.1063/5.0137838
   
   with help from (in alphabetical order)
   P. Atkinson, C. Bannwarth, F. Bohle, G. Brandenburg, E. Caldeweyher
   M. Checinski, S. Dohm, S. Ehlert, S. Ehrlich, I. Gerasimov, C. Hölzer
   A. Katbashev, J. Kohn, J. Koopman, C. Lavigne, S. Lehtola, F. März, M. Müller,
   F. Musil, H. Neugebauer, J. Pisarek, C. Plett, P. Pracht, F. Pultar,
   J. Seibert, P. Shushkov, S. Spicher, M. Stahn, M. Steiner, T. Strunk,
   J. Stückrath, T. Rose, and J. Unsleber
   
 * started run on 2024/12/19 at 11:12:37.833     
   ID    Z sym.   atoms
    1    6 C      1-5, 7-11, 13-16, 19, 20, 39-41, 47
    2    8 O      6, 17, 36-38
    3    7 N      12, 18
    4    1 H      21-34, 42-46, 48-52
    5   15 P      35

           -------------------------------------------------
          |                Calculation Setup                |
           -------------------------------------------------

          program call               : /home/mmaximo/orca_6_0_1_avx2/otool_xtb HBQ-DCP_GS-GOAT_XTB.xyz --grad -c 1 -u 0 -P 1 --namespace HBQ-DCP_GS-GOAT --input HBQ-DCP_GS-GOAT_XTB.input.tmp --cosmo WATER --acc 0.200000
          hostname                   : n01
          calculation namespace      : HBQ-DCP_GS-GOAT
          coordinate file            : HBQ-DCP_GS-GOAT_XTB.xyz
          omp threads                :                     1


           -------------------------------------------------
          |                 G F N 2 - x T B                 |
           -------------------------------------------------

        Reference                      10.1021/acs.jctc.8b01176
      * Hamiltonian:
        H0-scaling (s, p, d)           1.850000    2.230000    2.230000
        zeta-weighting                 0.500000
      * Dispersion:
        s8                             2.700000
        a1                             0.520000
        a2                             5.000000
        s9                             5.000000
      * Repulsion:
        kExp                           1.500000    1.000000
        rExp                           1.000000
      * Coulomb:
        alpha                          2.000000
        third order                    shell-resolved
        anisotropic                    true
        a3                             3.000000
        a5                             4.000000
        cn-shift                       1.200000
        cn-exp                         4.000000
        max-rad                        5.000000

      * Solvation model:               COSMO
        Solvent                        WATER
        Parameter file                 internal GFN2-xTB/ALPB+COSMO
        Dielectric constant                8.0200E+01
        Reference state                gsolv [1 M gas/solution]
        Free energy shift                  0.0000E+00 Eh       0.0000E+00 kcal/mol
        Temperature                        2.9815E+02 K
        Density                            1.0000E+00 kg/L
        Solvent mass                       1.8000E+01 g/mol
        vdW Radii scaling                  1.0000E+00
        Surface tension                    1.0000E-05 Eh       1.5569E+01 dyn/cm
        Grid points                               230 per atom

          ...................................................
          :                      SETUP                      :
          :.................................................:
          :  # basis functions                 142          :
          :  # atomic orbitals                 141          :
          :  # shells                           81          :
          :  # electrons                       148          :
          :  max. iterations                   250          :
          :  Hamiltonian                  GFN2-xTB          :
          :  restarted?                      false          :
          :  GBSA solvation                   true          :
          :  PC potential                    false          :
          :  electronic temp.          300.0000000     K    :
          :  accuracy                    0.2000000          :
          :  -> integral cutoff          0.3198970E+02      :
          :  -> integral neglect         0.2000000E-08      :
          :  -> SCF convergence          0.2000000E-06 Eh   :
          :  -> wf. convergence          0.2000000E-04 e    :
          :  Broyden damping             0.4000000          :
          :  net charge                          1          :
          :  unpaired electrons                  0          :
          ...................................................

 iter      E             dE          RMSdq      gap      omega  full diag
   1    -84.5782840 -0.845783E+02  0.541E+00    2.52       0.0  T
   2    -84.7461098 -0.167826E+00  0.330E+00    2.20       1.0  T
   3    -84.7479369 -0.182710E-02  0.112E+00    2.04       1.0  T
   4    -84.7625837 -0.146468E-01  0.425E-01    1.97       1.0  T
   5    -84.7634217 -0.838020E-03  0.224E-01    2.01       1.0  T
   6    -84.7653470 -0.192527E-02  0.849E-02    2.01       1.0  T
   7    -84.7652572  0.898042E-04  0.443E-02    2.03       1.0  T
   8    -84.7654947 -0.237530E-03  0.235E-02    2.02       1.0  T
   9    -84.7654618  0.328988E-04  0.105E-02    2.03       1.3  T
  10    -84.7654886 -0.267755E-04  0.471E-03    2.03       2.9  T
  11    -84.7654820  0.657941E-05  0.203E-03    2.03       6.8  T
  12    -84.7654859 -0.390559E-05  0.786E-04    2.03      17.6  T
  13    -84.7654886 -0.264671E-05  0.388E-04    2.03      35.7  T
  14    -84.7654888 -0.216399E-06  0.179E-04    2.03      77.3  T
  15    -84.7654906 -0.180473E-05  0.751E-05    2.03     184.7  T
  16    -84.7654904  0.168636E-06  0.439E-05    2.03     315.9  T
  17    -84.7654906 -0.209884E-06  0.184E-05    2.03     755.2  T
  18    -84.7654907 -0.371542E-07  0.693E-06    2.03    2000.4  T

   *** convergence criteria satisfied after 18 iterations ***

         #    Occupation            Energy/Eh            Energy/eV
      -------------------------------------------------------------
         1        2.0000           -0.7650876             -20.8191
       ...           ...                  ...                  ...
        68        2.0000           -0.4489921             -12.2177
        69        2.0000           -0.4487867             -12.2121
        70        2.0000           -0.4458481             -12.1321
        71        2.0000           -0.4383069             -11.9269
        72        2.0000           -0.4252032             -11.5704
        73        2.0000           -0.4098468             -11.1525
        74        2.0000           -0.4024044             -10.9500 (HOMO)
        75                         -0.3279015              -8.9227 (LUMO)
        76                         -0.2944773              -8.0131
        77                         -0.2572754              -7.0008
        78                         -0.2346717              -6.3857
        79                         -0.2178204              -5.9272
       ...                                ...                  ...
       141                          1.3477914              36.6753
      -------------------------------------------------------------
                  HL-Gap            0.0745029 Eh            2.0273 eV
             Fermi-level           -0.3651530 Eh           -9.9363 eV

 SCC (total)                   0 d,  0 h,  0 min,  1.440 sec
 SCC setup                      ...        0 min,  0.018 sec (  1.278%)
 Dispersion                     ...        0 min,  0.002 sec (  0.129%)
 classical contributions        ...        0 min,  0.000 sec (  0.008%)
 integral evaluation            ...        0 min,  0.040 sec (  2.757%)
 iterations                     ...        0 min,  1.286 sec ( 89.309%)
 molecular gradient             ...        0 min,  0.081 sec (  5.640%)
 printout                       ...        0 min,  0.013 sec (  0.878%)

         :::::::::::::::::::::::::::::::::::::::::::::::::::::
         ::                     SUMMARY                     ::
         :::::::::::::::::::::::::::::::::::::::::::::::::::::
         :: total energy             -83.643436753947 Eh    ::
         :: total w/o Gsasa/hb       -83.640237528717 Eh    ::
         :: gradient norm              0.029552507476 Eh/a0 ::
         :: HOMO-LUMO gap              2.027327528653 eV    ::
         ::.................................................::
         :: SCC energy               -84.763161439258 Eh    ::
         :: -> isotropic ES            0.209179040413 Eh    ::
         :: -> anisotropic ES         -0.023005960226 Eh    ::
         :: -> anisotropic XC          0.031854006568 Eh    ::
         :: -> dispersion             -0.068856582034 Eh    ::
         :: -> Gsolv                  -0.072647502120 Eh    ::
         ::    -> Gelec               -0.069448276890 Eh    ::
         ::    -> Gsasa               -0.003199225230 Eh    ::
         ::    -> Ghb                  0.000000000000 Eh    ::
         ::    -> Gshift               0.000000000000 Eh    ::
         :: repulsion energy           1.119724685311 Eh    ::
         :: add. restraining           0.000000000000 Eh    ::
         :: total charge               1.000000000000 e     ::
         :::::::::::::::::::::::::::::::::::::::::::::::::::::


Property printout bound to 'properties.out'

           -------------------------------------------------
          | TOTAL ENERGY              -83.643436753947 Eh   |
          | GRADIENT NORM               0.029552507476 Eh/α |
          | HOMO-LUMO GAP               2.027327528653 eV   |
           -------------------------------------------------

------------------------------------------------------------------------
 * finished run on 2024/12/19 at 11:12:39.451     
------------------------------------------------------------------------
 total:
 * wall-time:     0 d,  0 h,  0 min,  1.605 sec
 *  cpu-time:     0 d,  0 h,  0 min,  1.376 sec
 * ratio c/w:     0.857 speedup
 SCF:
 * wall-time:     0 d,  0 h,  0 min,  1.449 sec
 *  cpu-time:     0 d,  0 h,  0 min,  1.353 sec
 * ratio c/w:     0.934 speedup


-------------------------   --------------------
FINAL SINGLE POINT ENERGY       -83.643436753950
-------------------------   --------------------


-------------
DIPOLE MOMENT
-------------
                                X             Y             Z
Total Dipole Moment    :     -1.25400       3.40600       2.03300
                        -----------------------------------------
Magnitude (a.u.)       :      4.16010
Magnitude (Debye)      :     10.57414

------------------------------------------------------------------------------
                         ORCA GEOMETRY RELAXATION STEP
------------------------------------------------------------------------------

Reading the OPT-File                    .... done
Getting information on internals        .... done
Copying old internal coords+grads       .... done
Making the new internal coordinates     .... (2022 redundants) done
Validating the new internal coordinates .... (2022 redundants) done
Calculating the B-matrix                .... done
Calculating the G,G- and P matrices     .... done
Transforming gradient to internals      .... done
Projecting the internal gradient        .... done
Number of atoms                         ....  52
Number of internal coordinates          .... 259
Current Energy                          ....   -83.643436754 Eh
Current gradient norm                   ....     0.029552507 Eh/bohr
Maximum allowed component of the step   ....  0.300
Current trust radius                    ....  0.300
Evaluating the initial hessian          ....  (Almloef) done
Projecting the Hessian                  .... done
Forming the augmented Hessian           .... done
Diagonalizing the augmented Hessian     .... done
Last element of RFO vector              ....  0.935752807
Lowest eigenvalues of augmented Hessian:
 -0.002030154  0.001078853  0.004987638  0.012173166  0.012357986
Length of the computed step             ....  0.376869412
Warning: the length of the step is outside the trust region - taking restricted step instead
The input lambda is                     ....    -0.000151
   iter:   5  x=   -0.003315  g=   30.881648 f(x)=     0.012098
The output lambda is                    ....    -0.003377 (9 iterations)
The final length of the internal step   ....  0.300000000
Converting the step to Cartesian space:
 Initial RMS(Int)=    0.0186410930
Transforming coordinates:
 Iter   0:  RMS(Cart)=    0.1213641458 RMS(Int)=    0.0187319346
 Iter   5:  RMS(Cart)=    0.0000014069 RMS(Int)=    0.0000003717
done
Storing new coordinates                 .... done

                                .--------------------.
          ----------------------|Geometry convergence|-------------------------
          Item                value                   Tolerance       Converged
          ---------------------------------------------------------------------
          RMS gradient        0.0012014492            0.0001000000      NO
          MAX gradient        0.0109727079            0.0003000000      NO
          RMS step            0.0186410930            0.0020000000      NO
          MAX step            0.1950950588            0.0040000000      NO
          ........................................................
          Max(Bonds)      0.1032      Max(Angles)    0.56
          Max(Dihed)        6.40      Max(Improp)    0.00
          ---------------------------------------------------------------------

The optimization has not yet converged - more geometry cycles are needed


    ---------------------------------------------------------------------------
                         Redundant Internal Coordinates
                            (Angstroem and degrees)

        Definition                    Value    dE/dq     Step     New-Value
    ----------------------------------------------------------------------------
     1. B(C   1,C   0)                1.3922 -0.000190  0.0002    1.3924   
     2. B(C   2,C   1)                1.3765  0.001298 -0.0010    1.3755   
     3. B(C   3,C   0)                1.3798  0.000520 -0.0004    1.3794   
     4. B(C   4,C   3)                1.4095 -0.000868  0.0008    1.4102   
     5. B(O   5,C   3)                1.3804 -0.003351  0.0030    1.3835   
     6. B(C   6,C   4)                1.4207  0.000104 -0.0002    1.4204   
     7. B(C   6,C   2)                1.3995 -0.000325  0.0003    1.3998   
     8. B(C   7,C   6)                1.4273  0.000532 -0.0005    1.4268   
     9. B(C   8,C   7)                1.3536  0.000707 -0.0005    1.3531   
    10. B(C   9,C   4)                1.4243 -0.001621  0.0015    1.4258   
    11. B(C  10,C   9)                1.4213  0.000991 -0.0010    1.4204   
    12. B(C  10,C   8)                1.4258  0.000286 -0.0002    1.4256   
    13. B(N  11,C   9)                1.3558 -0.001439  0.0013    1.3571   
    14. B(C  12,N  11)                1.3388 -0.000934  0.0008    1.3396   
    15. B(C  13,C  12)                1.3772  0.000226 -0.0002    1.3770   
    16. B(C  14,C  13)                1.3861  0.001152 -0.0010    1.3851   
    17. B(C  14,C  10)                1.3959 -0.000658  0.0005    1.3964   
    18. B(C  15,O   5)                1.3879  0.001224 -0.0011    1.3868   
    19. B(O  16,C  15)                1.2112 -0.010973  0.0054    1.2165   
    20. B(N  17,C  15)                1.3338  0.004706 -0.0036    1.3302   
    21. B(C  18,N  17)                1.4440 -0.000225  0.0003    1.4442   
    22. B(C  19,N  17)                1.4474  0.000029 -0.0000    1.4473   
    23. B(H  20,C  19)                1.0911  0.000411 -0.0006    1.0905   
    24. B(H  21,C  19)                1.0871 -0.000181  0.0003    1.0874   
    25. B(H  22,C  19)                1.0909  0.000710 -0.0010    1.0898   
    26. B(H  23,C  18)                1.0911  0.000914 -0.0013    1.0897   
    27. B(H  24,C  18)                1.0850  0.000655 -0.0010    1.0840   
    28. B(H  25,C  18)                1.0926  0.000615 -0.0009    1.0917   
    29. B(H  26,C   2)                1.0789  0.000457 -0.0006    1.0782   
    30. B(H  27,C   0)                1.0784  0.000137 -0.0002    1.0782   
    31. B(H  28,C   1)                1.0786  0.000365 -0.0005    1.0781   
    32. B(H  29,C   7)                1.0792  0.000448 -0.0006    1.0786   
    33. B(H  30,C   8)                1.0785  0.000516 -0.0007    1.0778   
    34. B(H  31,C  12)                1.0795  0.000090 -0.0001    1.0793   
    35. B(H  32,C  13)                1.0776  0.000497 -0.0007    1.0769   
    36. B(H  33,C  14)                1.0797  0.000442 -0.0006    1.0791   
    37. B(P  34,N  11)                1.7734  0.002185 -0.0024    1.7709   
    38. B(O  35,P  34)                1.4529 -0.008673  0.0031    1.4560   
    39. B(O  36,P  34)                1.5724  0.001467 -0.0008    1.5716   
    40. B(O  37,P  34)                1.5913  0.001462 -0.0009    1.5905   
    41. B(C  38,O  36)                1.4383 -0.001377  0.0016    1.4399   
    42. B(C  39,O  37)                1.4305 -0.000793  0.0009    1.4314   
    43. B(C  40,C  38)                1.5152  0.000012 -0.0000    1.5152   
    44. B(H  41,H  24)                2.5099  0.000654 -0.1032    2.4067   
    45. B(H  41,C  38)                1.0934  0.000419 -0.0007    1.0927   
    46. B(H  42,C  38)                1.0918  0.000669 -0.0010    1.0908   
    47. B(H  43,C  40)                1.0887 -0.000340  0.0005    1.0891   
    48. B(H  44,C  40)                1.0867  0.000380 -0.0005    1.0862   
    49. B(H  45,C  40)                1.0872  0.000050 -0.0001    1.0872   
    50. B(C  46,C  39)                1.5173  0.000270 -0.0004    1.5170   
    51. B(H  47,C  39)                1.0931 -0.000234  0.0003    1.0934   
    52. B(H  48,C  39)                1.0916  0.000319 -0.0005    1.0911   
    53. B(H  49,C  46)                1.0882  0.000638 -0.0009    1.0873   
    54. B(H  50,C  46)                1.0896  0.000294 -0.0004    1.0892   
    55. B(H  51,C  46)                1.0862  0.000162 -0.0002    1.0860   
    56. A(C   1,C   0,C   3)          120.32 -0.000158    0.01    120.33   
    57. A(C   1,C   0,H  27)          120.67  0.000007    0.00    120.67   
    58. A(C   3,C   0,H  27)          119.00  0.000155   -0.02    118.98   
    59. A(C   0,C   1,C   2)          120.28  0.000118   -0.02    120.25   
    60. A(C   0,C   1,H  28)          119.34  0.000164   -0.02    119.31   
    61. A(C   2,C   1,H  28)          120.27 -0.000283    0.05    120.32   
    62. A(C   1,C   2,H  26)          120.49  0.000062    0.00    120.49   
    63. A(C   6,C   2,H  26)          119.10  0.000180   -0.02    119.08   
    64. A(C   1,C   2,C   6)          120.40 -0.000247    0.02    120.42   
    65. A(C   4,C   3,O   5)          122.03 -0.002116    0.33    122.37   
    66. A(C   0,C   3,O   5)          117.61  0.002249   -0.27    117.34   
    67. A(C   0,C   3,C   4)          120.22 -0.000176    0.01    120.23   
    68. A(C   6,C   4,C   9)          118.20  0.000423   -0.08    118.12   
    69. A(C   3,C   4,C   9)          123.26 -0.001203    0.25    123.50   
    70. A(C   3,C   4,C   6)          118.35  0.000752   -0.11    118.24   
    71. A(C   3,O   5,C  15)          117.32 -0.004282    0.56    117.89   
    72. A(C   4,C   6,C   7)          119.07 -0.000364    0.02    119.09   
    73. A(C   2,C   6,C   7)          121.55  0.000620   -0.04    121.51   
    74. A(C   2,C   6,C   4)          119.28 -0.000264    0.03    119.31   
    75. A(C   6,C   7,H  29)          117.92  0.000293   -0.03    117.89   
    76. A(C   6,C   7,C   8)          121.28  0.000174   -0.05    121.23   
    77. A(C   8,C   7,H  29)          120.63 -0.000476    0.09    120.73   
    78. A(C  10,C   8,H  30)          118.09  0.000265   -0.04    118.06   
    79. A(C   7,C   8,H  30)          121.34 -0.000028    0.01    121.36   
    80. A(C   7,C   8,C  10)          120.53 -0.000229    0.01    120.54   
    81. A(C   4,C   9,C  10)          119.49  0.000498   -0.13    119.36   
    82. A(C  10,C   9,N  11)          118.57  0.000574   -0.05    118.52   
    83. A(C   4,C   9,N  11)          121.90 -0.001078    0.19    122.09   
    84. A(C   9,C  10,C  14)          118.23 -0.000524    0.07    118.30   
    85. A(C   8,C  10,C  14)          123.08  0.000935   -0.11    122.97   
    86. A(C   8,C  10,C   9)          118.66 -0.000408    0.04    118.69   
    87. A(C   9,N  11,P  34)          121.74 -0.002136    0.26    122.00   
    88. A(C   9,N  11,C  12)          120.97  0.000170   -0.04    120.93   
    89. A(C  12,N  11,P  34)          114.74  0.001991   -0.33    114.41   
    90. A(N  11,C  12,H  31)          115.49 -0.000145    0.01    115.50   
    91. A(N  11,C  12,C  13)          121.59  0.000029    0.01    121.60   
    92. A(C  13,C  12,H  31)          122.89  0.000122   -0.03    122.85   
    93. A(C  12,C  13,H  32)          119.96  0.000228   -0.04    119.92   
    94. A(C  12,C  13,C  14)          118.61 -0.000135    0.00    118.61   
    95. A(C  14,C  13,H  32)          121.29 -0.000082    0.01    121.30   
    96. A(C  10,C  14,H  33)          119.52  0.000333   -0.04    119.47   
    97. A(C  10,C  14,C  13)          119.86 -0.000125   -0.00    119.86   
    98. A(C  13,C  14,H  33)          120.62 -0.000208    0.04    120.66   
    99. A(O  16,C  15,N  17)          125.29  0.001025   -0.13    125.16   
   100. A(O   5,C  15,N  17)          112.21  0.000027    0.01    112.22   
   101. A(O   5,C  15,O  16)          122.49 -0.001052    0.12    122.61   
   102. A(C  18,N  17,C  19)          115.48  0.001326   -0.19    115.29   
   103. A(C  15,N  17,C  19)          119.06 -0.001007    0.15    119.21   
   104. A(C  15,N  17,C  18)          125.21 -0.000341    0.07    125.28   
   105. A(N  17,C  18,H  25)          109.45  0.000698   -0.14    109.31   
   106. A(H  23,C  18,H  24)          109.41 -0.000443    0.12    109.52   
   107. A(H  23,C  18,H  25)          108.43 -0.000662    0.10    108.53   
   108. A(N  17,C  18,H  24)          110.48 -0.000242    0.05    110.53   
   109. A(N  17,C  18,H  23)          109.78  0.000792   -0.13    109.65   
   110. A(H  24,C  18,H  25)          109.26 -0.000156    0.01    109.27   
   111. A(H  21,C  19,H  22)          109.72 -0.000027    0.00    109.72   
   112. A(H  20,C  19,H  22)          108.98 -0.000270    0.01    109.00   
   113. A(N  17,C  19,H  22)          109.78  0.000709   -0.14    109.64   
   114. A(H  20,C  19,H  21)          109.22 -0.000009    0.04    109.26   
   115. A(N  17,C  19,H  21)          109.00 -0.000870    0.16    109.16   
   116. A(N  17,C  19,H  20)          110.13  0.000466   -0.08    110.05   
   117. A(N  11,P  34,O  36)           98.58 -0.000994    0.23     98.81   
   118. A(N  11,P  34,O  35)          117.04 -0.000886    0.20    117.24   
   119. A(O  36,P  34,O  37)          103.42 -0.000197   -0.06    103.36   
   120. A(O  35,P  34,O  37)          114.23  0.000749   -0.17    114.06   
   121. A(N  11,P  34,O  37)           98.16 -0.000551    0.14     98.29   
   122. A(O  35,P  34,O  36)          121.75  0.001392   -0.24    121.50   
   123. A(P  34,O  36,C  38)          117.56 -0.002792    0.33    117.89   
   124. A(P  34,O  37,C  39)          119.41 -0.002726    0.33    119.74   
   125. A(H  41,C  38,H  42)          110.03 -0.000151    0.09    110.12   
   126. A(C  40,C  38,H  42)          111.31 -0.000125   -0.01    111.30   
   127. A(O  36,C  38,H  42)          104.52 -0.000158   -0.00    104.52   
   128. A(C  40,C  38,H  41)          110.24  0.000245   -0.06    110.18   
   129. A(O  36,C  38,H  41)          108.52 -0.000736    0.15    108.67   
   130. A(O  36,C  38,C  40)          112.05  0.000878   -0.16    111.89   
   131. A(C  46,C  39,H  48)          111.38 -0.000143    0.00    111.39   
   132. A(O  37,C  39,H  48)          104.98  0.000159   -0.07    104.91   
   133. A(C  46,C  39,H  47)          109.99 -0.000361    0.10    110.10   
   134. A(O  37,C  39,H  47)          108.96 -0.000126    0.05    109.01   
   135. A(O  37,C  39,C  46)          111.54  0.000269   -0.04    111.50   
   136. A(H  47,C  39,H  48)          109.86  0.000230   -0.06    109.80   
   137. A(H  44,C  40,H  45)          109.01 -0.000251    0.04    109.05   
   138. A(H  43,C  40,H  45)          109.01  0.000261   -0.06    108.95   
   139. A(C  38,C  40,H  45)          110.56  0.000083   -0.02    110.54   
   140. A(H  43,C  40,H  44)          108.84  0.000003    0.01    108.85   
   141. A(C  38,C  40,H  44)          109.54  0.000158   -0.02    109.52   
   142. A(C  38,C  40,H  43)          109.86 -0.000256    0.05    109.90   
   143. A(H  50,C  46,H  51)          108.60 -0.000199    0.04    108.64   
   144. A(H  49,C  46,H  51)          108.78 -0.000360    0.07    108.86   
   145. A(C  39,C  46,H  51)          109.47  0.000277   -0.05    109.42   
   146. A(H  49,C  46,H  50)          109.34 -0.000222    0.03    109.37   
   147. A(C  39,C  46,H  50)          109.95  0.000041   -0.01    109.94   
   148. A(C  39,C  46,H  49)          110.66  0.000447   -0.08    110.58   
   149. D(C   2,C   1,C   0,C   3)     -5.75 -0.000183    0.28     -5.47   
   150. D(H  28,C   1,C   0,H  27)     -2.94  0.000042   -0.09     -3.03   
   151. D(C   2,C   1,C   0,H  27)    173.16  0.000024   -0.11    173.04   
   152. D(H  28,C   1,C   0,C   3)    178.16 -0.000165    0.30    178.46   
   153. D(C   6,C   2,C   1,H  28)   -179.09 -0.000124    0.19   -178.90   
   154. D(H  26,C   2,C   1,C   0)   -173.67  0.000062   -0.09   -173.76   
   155. D(C   6,C   2,C   1,C   0)      4.85 -0.000124    0.22      5.07   
   156. D(H  26,C   2,C   1,H  28)      2.39  0.000062   -0.11      2.27   
   157. D(C   4,C   3,C   0,H  27)    178.92  0.000236   -0.35    178.56   
   158. D(O   5,C   3,C   0,C   1)    173.60 -0.000292    0.35    173.95   
   159. D(O   5,C   3,C   0,H  27)     -5.32 -0.000494    0.73     -4.59   
   160. D(C   4,C   3,C   0,C   1)     -2.16  0.000438   -0.74     -2.90   
   161. D(C   6,C   4,C   3,O   5)   -164.94  0.000280   -0.42   -165.35   
   162. D(C   9,C   4,C   3,C   0)   -174.50 -0.000641    1.40   -173.10   
   163. D(C   6,C   4,C   3,C   0)     10.64 -0.000289    0.69     11.33   
   164. D(C   9,C   4,C   3,O   5)      9.93 -0.000071    0.29     10.22   
   165. D(C  15,O   5,C   3,C   4)     55.19 -0.003268    6.40     61.59   
   166. D(C  15,O   5,C   3,C   0)   -120.49 -0.002616    5.31   -115.18   
   167. D(C   7,C   6,C   4,C   9)    -10.31  0.000298   -0.62    -10.93   
   168. D(C   2,C   6,C   4,C   9)    173.46  0.000417   -0.90    172.56   
   169. D(C   2,C   6,C   4,C   3)    -11.41 -0.000003   -0.21    -11.62   
   170. D(C   7,C   6,C   4,C   3)    164.82 -0.000122    0.07    164.89   
   171. D(C   7,C   6,C   2,H  26)      6.22  0.000123   -0.22      5.99   
   172. D(C   4,C   6,C   2,H  26)   -177.65 -0.000039    0.06   -177.58   
   173. D(C   4,C   6,C   2,C   1)      3.81  0.000146   -0.24      3.57   
   174. D(C   7,C   6,C   2,C   1)   -172.33  0.000307   -0.52   -172.85   
   175. D(H  29,C   7,C   6,C   4)   -179.28  0.000037   -0.05   -179.33   
   176. D(H  29,C   7,C   6,C   2)     -3.13 -0.000120    0.23     -2.90   
   177. D(C   8,C   7,C   6,C   4)     -3.98 -0.000120    0.17     -3.80   
   178. D(C   8,C   7,C   6,C   2)    172.17 -0.000278    0.46    172.63   
   179. D(C  10,C   8,C   7,C   6)      9.38 -0.000161    0.20      9.59   
   180. D(H  30,C   8,C   7,H  29)      2.29 -0.000063    0.05      2.35   
   181. D(H  30,C   8,C   7,C   6)   -172.88  0.000062   -0.17   -173.06   
   182. D(C  10,C   8,C   7,H  29)   -175.44 -0.000286    0.43   -175.01   
   183. D(N  11,C   9,C   4,C   6)   -158.34 -0.000099    0.41   -157.92   
   184. D(N  11,C   9,C   4,C   3)     26.79  0.000236   -0.29     26.50   
   185. D(C  10,C   9,C   4,C   6)     19.22 -0.000249    0.70     19.93   
   186. D(C  10,C   9,C   4,C   3)   -155.65  0.000086   -0.00   -155.65   
   187. D(C  14,C  10,C   9,N  11)    -14.44 -0.000165    0.11    -14.33   
   188. D(C  14,C  10,C   9,C   4)    167.92  0.000021   -0.18    167.75   
   189. D(C   8,C  10,C   9,N  11)    163.55 -0.000046   -0.07    163.48   
   190. D(C   8,C  10,C   9,C   4)    -14.09  0.000139   -0.36    -14.44   
   191. D(C  14,C  10,C   8,H  30)     -0.23 -0.000068    0.08     -0.15   
   192. D(C  14,C  10,C   8,C   7)    177.58  0.000142   -0.28    177.30   
   193. D(C   9,C  10,C   8,H  30)   -178.12 -0.000159    0.26   -177.85   
   194. D(C   9,C  10,C   8,C   7)     -0.31  0.000051   -0.10     -0.41   
   195. D(P  34,N  11,C   9,C  10)   -145.41 -0.000388    0.48   -144.94   
   196. D(P  34,N  11,C   9,C   4)     32.17 -0.000538    0.76     32.93   
   197. D(C  12,N  11,C   9,C  10)     15.53  0.000074    0.01     15.54   
   198. D(C  12,N  11,C   9,C   4)   -166.89 -0.000076    0.29   -166.59   
   199. D(H  31,C  12,N  11,P  34)    -20.53 -0.000354   -0.03    -20.56   
   200. D(H  31,C  12,N  11,C   9)    177.27 -0.000065    0.31    177.58   
   201. D(C  13,C  12,N  11,P  34)    157.50 -0.000158   -0.37    157.13   
   202. D(C  13,C  12,N  11,C   9)     -4.70  0.000131   -0.04     -4.73   
   203. D(H  32,C  13,C  12,H  31)     -5.04 -0.000046   -0.02     -5.06   
   204. D(H  32,C  13,C  12,N  11)    177.07 -0.000251    0.35    177.42   
   205. D(C  14,C  13,C  12,H  31)    170.66  0.000118   -0.44    170.22   
   206. D(C  14,C  13,C  12,N  11)     -7.23 -0.000087   -0.07     -7.30   
   207. D(C  10,C  14,C  13,C  12)      7.77 -0.000123    0.20      7.98   
   208. D(H  33,C  14,C  10,C   9)   -177.57  0.000218   -0.45   -178.02   
   209. D(H  33,C  14,C  10,C   8)      4.53  0.000125   -0.26      4.27   
   210. D(C  13,C  14,C  10,C   9)      2.87  0.000124   -0.21      2.66   
   211. D(C  13,C  14,C  10,C   8)   -175.03  0.000031   -0.03   -175.06   
   212. D(H  33,C  14,C  13,H  32)      3.86 -0.000041    0.01      3.87   
   213. D(H  33,C  14,C  13,C  12)   -171.78 -0.000221    0.44   -171.34   
   214. D(C  10,C  14,C  13,H  32)   -176.58  0.000056   -0.23   -176.81   
   215. D(N  17,C  15,O   5,C   3)    153.43 -0.002082    4.22    157.64   
   216. D(O  16,C  15,O   5,C   3)    -27.69 -0.002086    4.24    -23.44   
   217. D(C  19,N  17,C  15,O  16)     -1.42  0.000546   -0.90     -2.32   
   218. D(C  19,N  17,C  15,O   5)    177.43  0.000514   -0.87    176.56   
   219. D(C  18,N  17,C  15,O  16)    172.58  0.000355   -0.49    172.09   
   220. D(C  18,N  17,C  15,O   5)     -8.57  0.000323   -0.45     -9.03   
   221. D(H  25,C  18,N  17,C  15)   -116.09  0.000367   -0.90   -117.00   
   222. D(H  24,C  18,N  17,C  19)    178.44  0.000163   -0.53    177.91   
   223. D(H  24,C  18,N  17,C  15)      4.26  0.000469   -0.95      3.31   
   224. D(H  23,C  18,N  17,C  19)    -60.81 -0.000030   -0.44    -61.25   
   225. D(H  23,C  18,N  17,C  15)    125.01  0.000277   -0.86    124.14   
   226. D(H  22,C  19,N  17,C  15)   -123.51  0.000105    0.13   -123.38   
   227. D(H  21,C  19,N  17,C  18)   -177.88  0.000222   -0.24   -178.12   
   228. D(H  21,C  19,N  17,C  15)     -3.31 -0.000034    0.15     -3.16   
   229. D(H  20,C  19,N  17,C  18)    -58.07 -0.000045   -0.14    -58.21   
   230. D(H  20,C  19,N  17,C  15)    116.49 -0.000301    0.25    116.74   
   231. D(O  37,P  34,N  11,C   9)    119.35  0.000093    1.16    120.50   
   232. D(O  36,P  34,N  11,C  12)     62.29 -0.000573    1.57     63.86   
   233. D(O  36,P  34,N  11,C   9)   -135.66 -0.000404    1.17   -134.49   
   234. D(O  35,P  34,N  11,C  12)   -165.29 -0.000171    1.58   -163.72   
   235. D(O  35,P  34,N  11,C   9)     -3.25 -0.000002    1.18     -2.07   
   236. D(C  38,O  36,P  34,O  37)    -96.12 -0.001884    3.22    -92.89   
   237. D(C  38,O  36,P  34,O  35)     33.96  0.000155    2.71     36.67   
   238. D(C  38,O  36,P  34,N  11)    163.31 -0.000999    3.03    166.34   
   239. D(C  39,O  37,P  34,O  36)    156.12  0.000684    1.35    157.46   
   240. D(C  39,O  37,P  34,O  35)     21.65 -0.001597    1.86     23.50   
   241. D(C  39,O  37,P  34,N  11)   -102.98 -0.000542    1.62   -101.36   
   242. D(H  42,C  38,O  36,P  34)   -173.72 -0.000103    1.07   -172.64   
   243. D(H  41,C  38,O  36,P  34)    -56.34 -0.000701    1.25    -55.09   
   244. D(C  40,C  38,O  36,P  34)     65.62 -0.000329    1.17     66.79   
   245. D(H  48,C  39,O  37,P  34)   -162.53 -0.000050   -0.05   -162.59   
   246. D(H  47,C  39,O  37,P  34)    -44.91  0.000240   -0.13    -45.04   
   247. D(C  46,C  39,O  37,P  34)     76.71 -0.000123    0.01     76.72   
   248. D(H  44,C  40,C  38,H  42)     58.15 -0.000087   -0.01     58.14   
   249. D(H  44,C  40,C  38,H  41)    -64.23  0.000021   -0.08    -64.31   
   250. D(H  44,C  40,C  38,O  36)    174.79  0.000196   -0.12    174.67   
   251. D(H  43,C  40,C  38,H  42)    177.66 -0.000142    0.01    177.67   
   252. D(H  43,C  40,C  38,H  41)     55.27 -0.000034   -0.05     55.22   
[...]
			                   _   
			                  | |  
			  __ _  ___   __ _| |_ 
			 / _` |/ _ \ / _` | __|
			| (_| | (_) | (_| | |_ 
			 \__, |\___/ \__,_|\__|
			 __/ |                
			|___/                 

		      A Global Optimizer Algorithm
		     ------------------------------

Global parameters
-----------------
  GOAT version                               ... default
  Minimum global steps                       ... 3
  Number of base workers                     ... 4
  Split workers by                           ... 2
  Final number of workers                    ... 8
  Number of available CPUs                   ... 1
  Parameter list (worker : temperature)      ...  0 : 2903.97,  1 : 1451.98, 
                                                  2 :  725.99,  3 :  363.00, 
                                                  4 : 2903.97,  5 : 1451.98, 
                                                  6 :  725.99,  7 :  363.00 
  GradComp (mean : sigma)                    ... 1.00 : 0.50
  Number of fragments                        ... 1
  Number of atoms                            ... 52
  Flexibility parameter                      ... 0.32
  Optimizations per global step              ... 480
  Optimizations per worker                   ... 60

Filtering criteria
------------------
  RMSD                                       ... 0.125 Angs (atom. pos.)
  EnDiff                                     ... 0.100 kcal/mol
  RotConst                                   ... 1.00-2.50 %
  Maximum Conf. Energy                       ... 6.000 kcal/mol

Thermodynamics
--------------
  Ensemble temperature                       ... 298.15 K
  Degeneracy of conformers                   ... 1
  *No rotamers will be included in Gconf

------------------------------------------------------------------------------
   Iter  MinTemp     MaxEn       GradComp    NOpt   NProcs    Output
------------------------------------------------------------------------------
   0     2903.97    156.00    1.00 : 0.50      60        1    HBQ-DCP_GS-GOAT.goat.0.0.out
   1     1451.98    156.00    1.00 : 0.50      60        1    HBQ-DCP_GS-GOAT.goat.0.1.out
   2      725.99    156.00    1.00 : 0.50      60        1    HBQ-DCP_GS-GOAT.goat.0.2.out
   3      363.00    156.00    1.00 : 0.50      60        1    HBQ-DCP_GS-GOAT.goat.0.3.out
   4     2903.97    156.00    1.00 : 0.50      60        1    HBQ-DCP_GS-GOAT.goat.0.4.out
   5     1451.98    156.00    1.00 : 0.50      60        1    HBQ-DCP_GS-GOAT.goat.0.5.out
   6      725.99    156.00    1.00 : 0.50      60        1    HBQ-DCP_GS-GOAT.goat.0.6.out
   7      363.00    156.00    1.00 : 0.50      60        1    HBQ-DCP_GS-GOAT.goat.0.7.out

			     GOAT Global Iter 1
		Iter    Min En       Sconf       Gconf   
		        Hartree      cal/(molK)  kcal/mol
		=========================================

		   1    -83.648735   4.148       -0.443

   0     2903.97    156.00    1.00 : 0.50      60        1    HBQ-DCP_GS-GOAT.goat.1.0.out
   1     1451.98    156.00    1.00 : 0.50      60        1    HBQ-DCP_GS-GOAT.goat.1.1.out
   2      725.99    156.00    1.00 : 0.50      60        1    HBQ-DCP_GS-GOAT.goat.1.2.out
   3      363.00    156.00    1.00 : 0.50      60        1    HBQ-DCP_GS-GOAT.goat.1.3.out
   4     2903.97    156.00    1.00 : 0.50      60        1    HBQ-DCP_GS-GOAT.goat.1.4.out
   5     1451.98    156.00    1.00 : 0.50      60        1    HBQ-DCP_GS-GOAT.goat.1.5.out
   6      725.99    156.00    1.00 : 0.50      60        1    HBQ-DCP_GS-GOAT.goat.1.6.out
   7      363.00    156.00    1.00 : 0.50      60        1    HBQ-DCP_GS-GOAT.goat.1.7.out

			     GOAT Global Iter 2
		Iter    Min En       Sconf       Gconf   
		        Hartree      cal/(molK)  kcal/mol
		=========================================

		   1    -83.648735   4.148       -0.443
		   2    -83.648758   5.097       -0.666

   0     2903.97    156.00    1.00 : 0.50      60        1    HBQ-DCP_GS-GOAT.goat.2.0.out
   1     1451.98    156.00    1.00 : 0.50      60        1    HBQ-DCP_GS-GOAT.goat.2.1.out
   2      725.99    156.00    1.00 : 0.50      60        1    HBQ-DCP_GS-GOAT.goat.2.2.out
   3      363.00    156.00    1.00 : 0.50      60        1    HBQ-DCP_GS-GOAT.goat.2.3.out
   4     2903.97    156.00    1.00 : 0.50      60        1    HBQ-DCP_GS-GOAT.goat.2.4.out
   5     1451.98    156.00    1.00 : 0.50      60        1    HBQ-DCP_GS-GOAT.goat.2.5.out
   6      725.99    156.00    1.00 : 0.50      60        1    HBQ-DCP_GS-GOAT.goat.2.6.out
   7      363.00    156.00    1.00 : 0.50      60        1    HBQ-DCP_GS-GOAT.goat.2.7.out

			     GOAT Global Iter 3
		Iter    Min En       Sconf       Gconf   
		        Hartree      cal/(molK)  kcal/mol
		=========================================

		   1    -83.648735   4.148       -0.443
		   2    -83.648758   5.097       -0.666
		   3    -83.648771   5.411       -0.868

   0     2903.97    156.00    1.00 : 0.50      60        1    HBQ-DCP_GS-GOAT.goat.3.0.out
   1     1451.98    156.00    1.00 : 0.50      60        1    HBQ-DCP_GS-GOAT.goat.3.1.out
   2      725.99    156.00    1.00 : 0.50      60        1    HBQ-DCP_GS-GOAT.goat.3.2.out
   3      363.00    156.00    1.00 : 0.50      60        1    HBQ-DCP_GS-GOAT.goat.3.3.out
   4     2903.97    156.00    1.00 : 0.50      60        1    HBQ-DCP_GS-GOAT.goat.3.4.out
   5     1451.98    156.00    1.00 : 0.50      60        1    HBQ-DCP_GS-GOAT.goat.3.5.out
   6      725.99    156.00    1.00 : 0.50      60        1    HBQ-DCP_GS-GOAT.goat.3.6.out
   7      363.00    156.00    1.00 : 0.50      60        1    HBQ-DCP_GS-GOAT.goat.3.7.out

			     GOAT Global Iter 4
		Iter    Min En       Sconf       Gconf   
		        Hartree      cal/(molK)  kcal/mol
		=========================================

		   1    -83.648735   4.148       -0.443
		   2    -83.648758   5.097       -0.666
		   3    -83.648771   5.411       -0.868
		   4    -83.648808   5.489       -0.858

   0     2903.97    156.00    1.00 : 0.50      60        1    HBQ-DCP_GS-GOAT.goat.4.0.out
   1     1451.98    156.00    1.00 : 0.50      60        1    HBQ-DCP_GS-GOAT.goat.4.1.out
   2      725.99    156.00    1.00 : 0.50      60        1    HBQ-DCP_GS-GOAT.goat.4.2.out
   3      363.00    156.00    1.00 : 0.50      60        1    HBQ-DCP_GS-GOAT.goat.4.3.out
   4     2903.97    156.00    1.00 : 0.50      60        1    HBQ-DCP_GS-GOAT.goat.4.4.out
   5     1451.98    156.00    1.00 : 0.50      60        1    HBQ-DCP_GS-GOAT.goat.4.5.out
   6      725.99    156.00    1.00 : 0.50      60        1    HBQ-DCP_GS-GOAT.goat.4.6.out
   7      363.00    156.00    1.00 : 0.50      60        1    HBQ-DCP_GS-GOAT.goat.4.7.out

			     GOAT Global Iter 5
		Iter    Min En       Sconf       Gconf   
		        Hartree      cal/(molK)  kcal/mol
		=========================================

		   1    -83.648735   4.148       -0.443
		   2    -83.648758   5.097       -0.666
		   3    -83.648771   5.411       -0.868
		   4    -83.648808   5.489       -0.858
		   5    -83.648813   5.657       -0.871

		Global minimum found!
		Writing structure to HBQ-DCP_GS-GOAT.globalminimum.xyz

		# Final ensemble info #
		Conformer     Energy     Degen.   % total   % cumul.  
		              (kcal/mol)
		------------------------------------------------------
		        0     0.000	     1      23.01      23.01
		        1     0.130	     1      18.48      41.49
		        2     0.460	     1      10.58      52.07
		        3     0.748	     1       6.51      58.58
		        4     0.856	     1       5.42      64.00
		        5     0.965	     1       4.51      68.51
		        6     1.090	     1       3.65      72.16
		        7     1.103	     1       3.58      75.74
		        8     1.202	     1       3.03      78.77
		        9     1.227	     1       2.90      81.67
		       10     1.712	     1       1.28      82.95
		       11     1.826	     1       1.05      84.00
		       12     1.835	     1       1.04      85.04
		       13     1.937	     1       0.88      85.92
		       14     1.950	     1       0.86      86.77
		       15     1.966	     1       0.83      87.61
		       16     2.067	     1       0.70      88.31
		       17     2.070	     1       0.70      89.01
		       18     2.132	     1       0.63      89.64
		       19     2.208	     1       0.55      90.19
		       20     2.240	     1       0.52      90.72
		       21     2.279	     1       0.49      91.21
		       22     2.377	     1       0.42      91.62
		       23     2.380	     1       0.41      92.04
		       24     2.384	     1       0.41      92.45
		       25     2.448	     1       0.37      92.82
		       26     2.492	     1       0.34      93.16
		       27     2.577	     1       0.30      93.46
		       28     2.640	     1       0.27      93.73
		       29     2.694	     1       0.24      93.97
		       30     2.713	     1       0.24      94.21
		       31     2.726	     1       0.23      94.44
		       32     2.732	     1       0.23      94.67
		       33     2.771	     1       0.21      94.88
		       34     2.799	     1       0.20      95.08
		       35     2.841	     1       0.19      95.27
		       36     2.859	     1       0.18      95.46
		       37     2.875	     1       0.18      95.64
		       38     2.905	     1       0.17      95.81
		       39     2.906	     1       0.17      95.98
		       40     2.931	     1       0.16      96.14
		       41     2.956	     1       0.16      96.30
		       42     2.970	     1       0.15      96.45
		       43     2.989	     1       0.15      96.60
		       44     3.012	     1       0.14      96.74
		       45     3.028	     1       0.14      96.88
		       46     3.038	     1       0.14      97.02
		       47     3.094	     1       0.12      97.14
		       48     3.151	     1       0.11      97.26
		       49     3.173	     1       0.11      97.36
		       50     3.182	     1       0.11      97.47
		       51     3.204	     1       0.10      97.57
		       52     3.224	     1       0.10      97.67
		       53     3.277	     1       0.09      97.77
		       54     3.287	     1       0.09      97.86
		       55     3.289	     1       0.09      97.94
		       56     3.290	     1       0.09      98.03
		       57     3.300	     1       0.09      98.12
		       58     3.337	     1       0.08      98.20
		       59     3.373	     1       0.08      98.28
		       60     3.429	     1       0.07      98.35
		       61     3.430	     1       0.07      98.42
		       62     3.449	     1       0.07      98.49
		       63     3.478	     1       0.06      98.56
		       64     3.574	     1       0.06      98.61
		       65     3.585	     1       0.05      98.66
		       66     3.634	     1       0.05      98.71
		       67     3.685	     1       0.05      98.76
		       68     3.686	     1       0.05      98.81
		       69     3.725	     1       0.04      98.85
		       70     3.740	     1       0.04      98.89
		       71     3.758	     1       0.04      98.93
		       72     3.785	     1       0.04      98.97
		       73     3.788	     1       0.04      99.01
		       74     3.795	     1       0.04      99.05
		       75     3.801	     1       0.04      99.08
		       76     3.842	     1       0.04      99.12
		       77     3.867	     1       0.03      99.15
		       78     3.870	     1       0.03      99.19
		       79     3.871	     1       0.03      99.22
		       80     3.880	     1       0.03      99.25
		       81     3.920	     1       0.03      99.28
		       82     3.921	     1       0.03      99.31
		       83     3.972	     1       0.03      99.34
		       84     3.980	     1       0.03      99.37
		       85     3.997	     1       0.03      99.40
		       86     4.026	     1       0.03      99.42
		       87     4.099	     1       0.02      99.45
		       88     4.197	     1       0.02      99.47
		       89     4.205	     1       0.02      99.48
		       90     4.251	     1       0.02      99.50
		       91     4.262	     1       0.02      99.52
		       92     4.270	     1       0.02      99.54
		       93     4.357	     1       0.01      99.55
		       94     4.369	     1       0.01      99.57
		       95     4.379	     1       0.01      99.58
		       96     4.392	     1       0.01      99.59
		       97     4.396	     1       0.01      99.61
		       98     4.430	     1       0.01      99.62
		       99     4.464	     1       0.01      99.63
		      100     4.486	     1       0.01      99.64
		      101     4.487	     1       0.01      99.66
		      102     4.492	     1       0.01      99.67
		      103     4.501	     1       0.01      99.68
		      104     4.507	     1       0.01      99.69
		      105     4.509	     1       0.01      99.70
		      106     4.510	     1       0.01      99.71
		      107     4.516	     1       0.01      99.73
		      108     4.554	     1       0.01      99.74
		      109     4.566	     1       0.01      99.75
		      110     4.603	     1       0.01      99.76
		      111     4.606	     1       0.01      99.77
		      112     4.613	     1       0.01      99.77
		      113     4.617	     1       0.01      99.78
		      114     4.658	     1       0.01      99.79
		      115     4.662	     1       0.01      99.80
		      116     4.663	     1       0.01      99.81
		      117     4.690	     1       0.01      99.82
		      118     4.701	     1       0.01      99.83
		      119     4.707	     1       0.01      99.84
		      120     4.751	     1       0.01      99.84
		      121     4.824	     1       0.01      99.85
		      122     4.824	     1       0.01      99.86
		      123     4.830	     1       0.01      99.86
		      124     4.854	     1       0.01      99.87
		      125     4.885	     1       0.01      99.88
		      126     4.887	     1       0.01      99.88
		      127     4.899	     1       0.01      99.89
		      128     4.929	     1       0.01      99.89
		      129     4.945	     1       0.01      99.90
		      130     4.955	     1       0.01      99.90
		      131     5.000	     1       0.00      99.91
		      132     5.020	     1       0.00      99.91
		      133     5.045	     1       0.00      99.92
		      134     5.074	     1       0.00      99.92
		      135     5.101	     1       0.00      99.93
		      136     5.107	     1       0.00      99.93
		      137     5.130	     1       0.00      99.94
		      138     5.136	     1       0.00      99.94
		      139     5.136	     1       0.00      99.94
		      140     5.169	     1       0.00      99.95
		      141     5.176	     1       0.00      99.95
		      142     5.196	     1       0.00      99.95
		      143     5.251	     1       0.00      99.96
		      144     5.275	     1       0.00      99.96
		      145     5.390	     1       0.00      99.96
		      146     5.412	     1       0.00      99.97
		      147     5.488	     1       0.00      99.97
		      148     5.509	     1       0.00      99.97
		      149     5.523	     1       0.00      99.97
		      150     5.528	     1       0.00      99.97
		      151     5.542	     1       0.00      99.98
		      152     5.600	     1       0.00      99.98
		      153     5.603	     1       0.00      99.98
		      154     5.629	     1       0.00      99.98
		      155     5.649	     1       0.00      99.98
		      156     5.677	     1       0.00      99.98
		      157     5.702	     1       0.00      99.99
		      158     5.703	     1       0.00      99.99
		      159     5.712	     1       0.00      99.99
		      160     5.727	     1       0.00      99.99
		      161     5.759	     1       0.00      99.99
		      162     5.770	     1       0.00      99.99
		      163     5.785	     1       0.00      99.99
		      164     5.849	     1       0.00     100.00
		      165     5.893	     1       0.00     100.00
		      166     5.895	     1       0.00     100.00
		      167     5.954	     1       0.00     100.00
		      168     5.965	     1       0.00     100.00

		Conformers below 3 kcal/mol: 44
		Lowest energy conformer    : -83.648813 Eh
		Sconf at 298.15 K          :  5.66 cal/(molK)
		Gconf at 298.15 K          : -0.87 kcal/mol

		Writing final ensemble to HBQ-DCP_GS-GOAT.finalensemble.xyz

--------------------------------
SUGGESTED CITATIONS FOR THIS RUN
--------------------------------

Below you find a list of papers that are relevant to this ORCA run
We neither can nor want to force you to cite these papers, but we appreciate if you do
You receive ORCA, which is the product of decades of hard work by many enthusiastic individuals, for free
The only thing we kindly ask in return is that you cite our papers,
We deeply appreciate it, if you show your appreciation for ORCA by not just citing the generic ORCA reference.

Please note that relegating all ORCA citations to the supporting information does *not* help us.
SI sections are not indexed - citations you put there will not count into any citation statistics
But we need these citations in order to attract the funding resources that allow us to do what we are doing

Therefore, if you are a happy ORCA user, please consider citing a few of the papers listed below in the main body of your paper

In addition to the list printed below, the program has created the file HBQ-DCP_GS-GOAT.bibtex that contains the list in bibtex format
You can import this file easily into all common literature databanks and citation aid programs


List of essential papers. We consider these as the minimum necessary citations

  1. Bannwarth,C.; Ehlert,S.; Grimme,S.
     GFN2-xTB—An Accurate and Broadly Parametrized Self-Consistent Tight-Binding Quantum Chemical Method with Multipole Electrostatics and Density-Dependent Dispersion Contributions
     J. Chem. Theory Comput., 2019 15(3)1652-1671
     doi.org/10.1021/acs.jctc.8b01176
  2. Neese,F.
     Software update: the ORCA program system, version 5.0
     WIRES Comput. Molec. Sci., 2022 12(1)e1606
     doi.org/10.1002/wcms.1606

List of papers to cite with high priority. The work reported in these papers was absolutely
necessary for this run to complete.
Our perspective: the developers of density functionals and basis sets usually get cited in chemistry papers
Good! But without the algorithms to do something with them, the functionals or basis sets would not do anything.
Hence, in our opinion, the algorithm design and method developments papers are equally worthy of getting cited

  1. Bannwarth,C.; Caldeweyher,E.; Ehlert,S.; Hansen,A.; Pracht,P.; Seibert,J.; Spicher,S.; Grimme,S.
     Extended tight-binding quantum chemistry methods
     WIRES Comput. Molec. Sci., 2020 11(2)e1493
     doi.org/10.1002/wcms.1493

List of suggested additional citations. These are papers that are important in the 'surrounding' of 
of this run, or papers that preceded the highly important papers. If you like your results we are grateful for a citation.

  1. Neese,F.
     The ORCA program system
     WIRES Comput. Molec. Sci., 2012 2(1)73-78
     doi.org/10.1002/wcms.81
  2. Neese,F.
     Software update: the ORCA program system, version 4.0
     WIRES Comput. Molec. Sci., 2018 8(1)1-6
     doi.org/10.1002/wcms.1327
  3. Neese,F.; Wennmohs,F.; Becker,U.; Riplinger,C.
     The ORCA quantum chemistry program package
     J. Chem. Phys., 2020 152 Art. No. L224108
     doi.org/10.1063/5.0004608

List of optional additional citations

  1. Neese,F.
     Approximate second-order SCF convergence for spin unrestricted wavefunctions
     Chem. Phys. Lett., 2000 325(1-3)93-98
     doi.org/10.1016/s0009-2614(00)00662-x

Timings for individual modules:

Sum of individual times          ...   201612.000 sec (=3360.200 min)
Geometry relaxation              ...        0.951 sec (=   0.016 min)   0.0 %
GOAT                             ...   201596.013 sec (=3359.934 min) 100.0 %
XTB module                       ...       15.037 sec (=   0.251 min)   0.0 %
                             ****ORCA TERMINATED NORMALLY****
TOTAL RUN TIME: 2 days 8 hours 0 minutes 12 seconds 933 msec
