34
Coordinates from ORCA-job 6higherenergy E -878.329458581899
  C          -3.35650535652801     -0.79445647408135     -0.38469760461315
  C          -2.88502547143215     -1.71721269011858     -1.32858121954678
  C          -1.54226312419928     -1.74791367960251     -1.63406379619170
  C          -2.49162006914319      0.08209865270396      0.24004872518031
  C          -1.09823616184125      0.08866323152957     -0.04186304375057
  O          -3.05948558682226      0.88568493416114      1.22247666792662
  C          -0.63746509725506     -0.86429295962942     -1.00527886680863
  C           0.75737809250243     -0.93644294222716     -1.33693915713862
  C           1.66839337432073     -0.12078920333079     -0.75132143552261
  C          -0.11704982903239      0.97200617462246      0.57919866117915
  C           1.25682435578877      0.84838332260055      0.21823496391515
  N          -0.51979911737146      1.89331412601903      1.48717334120861
  C           0.38196998113772      2.68382620402109      2.04807967175101
  C           1.75586500675662      2.63235200841376      1.76142419932559
  C           2.18820794337380      1.70729460160070      0.83755003133908
  C          -3.31933747222135      2.19960471887751      0.90820827862988
  O          -3.19685384968009      2.63582825677255     -0.22324708307315
  N          -3.75035299011589      2.89000754876437      1.98633224400403
  C          -3.90481227482275      2.31735037856987      3.31992984787760
  C          -4.22093745013547      4.25910277664271      1.81616610252285
  H          -3.67690172280613      4.92784301674629      2.48874292117716
  H          -5.28872273568702      4.32737978117883      2.04769767512362
  H          -4.05735412951672      4.57322306554976      0.78977368161922
  H          -3.32551385479021      1.40494349505960      3.41105398456532
  H          -4.95688343576141      2.09845050193789      3.53233412732623
  H          -3.54705752355246      3.03829697717173      4.05858284960627
  H          -1.15816549851714     -2.45750781462784     -2.35938559659031
  H          -4.40759456283123     -0.75421550366028     -0.12229620460635
  H          -3.57811976032244     -2.39825358233066     -1.81010672840211
  H           1.06805784779592     -1.67096715120106     -2.07290474148891
  H           2.72147073664205     -0.18685036277876     -1.00624417425048
  H           0.00331950808290      3.40616904029288      2.76740368088368
  H           2.44419011801628      3.30798908798262      2.25605715868617
  H           3.23853009996796      1.62693047096893      0.57484083245488
