
                                 *****************
                                 * O   R   C   A *
                                 *****************

                                            #,                                       
                                            ###                                      
                                            ####                                     
                                            #####                                    
                                            ######                                   
                                           ########,                                 
                                     ,,################,,,,,                         
                               ,,#################################,,                 
                          ,,##########################################,,             
                       ,#########################################, ''#####,          
                    ,#############################################,,   '####,        
                  ,##################################################,,,,####,       
                ,###########''''           ''''###############################       
              ,#####''   ,,,,##########,,,,          '''####'''          '####       
            ,##' ,,,,###########################,,,                        '##       
           ' ,,###''''                  '''############,,,                           
         ,,##''                                '''############,,,,        ,,,,,,###''
      ,#''                                            '''#######################'''  
     '                                                          ''''####''''         
             ,#######,   #######,   ,#######,      ##                                
            ,#'     '#,  ##    ##  ,#'     '#,    #''#        ,####,   ,####,        
            ##       ##  ##   ,#'  ##            #'  '#       #'       #'  '#        
            ##       ##  #######   ##           ,######,      #####,   #    #        
            '#,     ,#'  ##    ##  '#,     ,#' ,#      #,     #,   #   #,  ,#        
             '#######'   ##     ##  '#######'  #'      '#     '####' # '####'        



                #########################################################
                #                        -***-                          #
                #          Department of theory and spectroscopy        #
                #                                                       #
                #                      Frank Neese                      #
                #                                                       #
                #     Directorship, Architecture, Infrastructure        #
                #                    SHARK, DRIVERS                     #
                #        Core code/Algorithms in most modules           #
                #                                                       #
                #        Max Planck Institute fuer Kohlenforschung      #
                #                Kaiser Wilhelm Platz 1                 #
                #                 D-45470 Muelheim/Ruhr                 #
                #                      Germany                          #
                #                                                       #
                #                  All rights reserved                  #
                #                        -***-                          #
                #########################################################


                         Program Version 6.0.1  -  RELEASE   -


 With contributions from (in alphabetic order):
[Max-Planck-Institut fuer Kohlenforschung]                               
  Daniel Aravena         : Magnetic Suceptibility                        
  Michael Atanasov       : Ab Initio Ligand Field Theory (pilot matlab implementation)
  Alexander A. Auer      : GIAO ZORA, VPT2 properties, NMR spectrum      
  Ute Becker             : All parallelization in ORCA, NUMFREQ, NUMCALC 
  Giovanni Bistoni       : ED, misc. LED, open-shell LED, HFLD           
  Martin Brehm           : Molecular dynamics                            
  Dmytro Bykov           : pre 5.0 version of the SCF Hessian            
  Marcos Casanova-Páez   : Triplet and SCS-CIS(D). UHF-(DLPNO)-IP/EA/STEOM-CCSD. UHF-CVS-IP/STEOM-CCSD   
  Vijay G. Chilkuri      : MRCI spin determinant printing, contributions to CSF-ICE 
  Pauline Colinet        : FMM embedding                                 
  Dipayan Datta          : RHF DLPNO-CCSD density                        
  Achintya Kumar Dutta   : EOM-CC, STEOM-CC                              
  Nicolas Foglia         : Exact transition moments, OPA infrastructure, MCD improvements    
  Dmitry Ganyushin       : Spin-Orbit,Spin-Spin,Magnetic field MRCI      
  Miquel Garcia-Rates    : C-PCM and meta-GGA Hessian, CCSD/C-PCM, Gaussian charge scheme 
  Tiago L. C. Gouveia    : GS-ROHF, GS-ROCIS                             
  Yang Guo               : DLPNO-NEVPT2, F12-NEVPT2, CIM, IAO-localization        
  Andreas Hansen         : Spin unrestricted coupled pair/coupled cluster methods 
  Ingolf Harden          : AUTO-CI MPn and infrastructure                
  Benjamin Helmich-Paris : MC-RPA, TRAH-(SCF,CASSCF), AVAS, COSX integrals, SCF dyn. polar. 
  Lee Huntington         : MR-EOM, pCC                                   
  Robert Izsak           : Overlap fitted RIJCOSX, COSX-SCS-MP3, EOM     
  Riya Kayal             : Wick's Theorem for AUTO-CI, AUTO-CI UHF-CCSDT 
  Emily Kempfer          : AUTO-CI, RHF CISDT and CCSDT                  
  Christian Kollmar      : KDIIS, OOCD, Brueckner-CCSD(T), CCSD density, CASPT2, CASPT2-K, improved NEVPT2 
  Axel Koslowski         : Symmetry handling                             
  Simone Kossmann        : meta-GGA functionals, TD-DFT gradient, OOMP2, (MP2 Hessian; deprecated post 5.0) 
  Lucas Lang             : DCDCAS                                        
  Marvin Lechner         : AUTO-CI (C++ implementation), FIC-MRCC        
  Spencer Leger          : CASSCF response                               
  Dagmar Lenk            : GEPOL surface, SMD, ORCA-2-JSON               
  Dimitrios Liakos       : Extrapolation schemes; Compound Job, initial MDCI parallelization 
  Dimitrios Manganas     : Further ROCIS development; embedding schemes. LFT, Crystal Embedding 
  Dimitrios Pantazis     : SARC Basis sets                               
  Anastasios Papadopoulos: AUTO-CI, single reference methods and gradients 
  Taras Petrenko         : pre 6.0 DFT Hessian and TD-DFT gradient, (ASA, deprecated), ECA, 1-Electron XAS/XES, NRVS 
  Peter Pinski           : DLPNO-MP2, DLPNO-MP2 Gradient                 
  Christoph Reimann      : Effective Core Potentials                     
  Marius Retegan         : Local ZFS, SOC                                
  Christoph Riplinger    : Optimizer, TS searches, QM/MM, DLPNO-CCSD(T), (RO)-DLPNO pert. Triples 
  Michael Roemelt        : Original ROCIS implementation                 
  Masaaki Saitow         : Open-shell DLPNO-CCSD energy and density      
  Barbara Sandhoefer     : DKH picture change effects                    
  Kantharuban Sivalingam : CASSCF convergence/infrastructure, NEVPT2 and variants, FIC-MRCI 
  Bernardo de Souza      : ESD, SOC TD-DFT                               
  Georgi L. Stoychev     : AutoAux, RI-MP2 NMR, DLPNO-MP2 response, X2C  
  Van Anh Tran           : RI-MP2 g-tensors                              
  Willem Van den Heuvel  : Paramagnetic NMR                              
  Zikuan Wang            : NOTCH, Electric field optimization            
  Frank Wennmohs         : Technical directorship and infrastructure     
  Hang Xu                : AUTO-CI-Response properties                   
                                                                         
[FACCTs GmbH]                                                            
  Markus Bursch, Miquel Garcia-Rates, Christoph Riplinger, Bernardo de Souza, Georgi L. Stoychev 
                                                                 
  APM, Basis sets (HGBS, AHGBS, def-TZVP (Ac-Lr), def2-XVPD (La-Lu)), CI-OPT, improved COSX, DLPNO-Multilevel,           
  DOCKER, DRACO, updates on ESD, GOAT, IRC, LR-CPCM, MBIS, meta-GGA TD-DFT gradient, ML-optimized integration grids, 
  MM, NACMEs, nearIR, NEB, NEB-TS, NL-DFT gradient (VV10), 2- and 3-layer-ONIOM, interface openCOSMO-RS, QMMM,   
  Crystal-QMMM, SF, symmetry and pop. for TD-DFT, r2SCAN hybrids, SOLVATOR                                   
                                                                         
[Other institutions]                                                     
  V. Asgeirsson          : NEB                                           
  Christoph Bannwarth    : sTDA-DFT, sTD-DFT, PBEh-3c, B97-3c, D3        
  Sebastian Ehlert       : rSCAN, r2SCAN, r2SCAN-3c, D4, dhf basis sets  
  Marvin Friede          : D4 for Fr, Ra, Ac-Lr                          
  Lars Goerigk           : TD-DFT with DH, B97 family of functionals     
  Stefan Grimme          : VdW corrections, initial TS optimization, DFT functionals, gCP, sTDA/sTD-DF 
  Waldemar Hujo          : DFT-NL                                        
  H. Jonsson             : NEB                                           
  Holger Kruse           : gCP                                           
  Marcel Mueller         : wB97X-3c, vDZP basis set                      
  Hagen Neugebauer       : wr2SCAN                                       
  Tobias Risthaus        : range-separated hybrid DFT                    
  Lukas Wittmann         : regularized MP2, r2SCAN double-hybrids, wr2SCAN        
                                                                         
We gratefully acknowledge several colleagues who have allowed us to      
interface, adapt or use parts of their codes:                            
  Ed Valeev, F. Pavosevic, A. Kumar             : LibInt (2-el integral package), F12 methods 
  Garnet Chan, S. Sharma, J. Yang, R. Olivares  : DMRG                   
  Ulf Ekstrom                                   : XCFun DFT Library      
  Mihaly Kallay                                 : mrcc  (arbitrary order and MRCC methods)
  Frank Weinhold                                : gennbo (NPA and NBO analysis)           
  Simon Mueller                                 : openCOSMO-RS                            
  Christopher J. Cramer and Donald G. Truhlar   : smd solvation model                     
  S Lehtola, MJT Oliveira, MAL Marques          : LibXC Library                           
  Liviu Ungur et al                             : ANISO software                          


 Your calculation uses the libint2 library for the computation of 2-el integrals
 For citations please refer to: http://libint.valeyev.net

 Your ORCA version has been built with support for libXC version: 6.2.2
 For citations please refer to: https://libxc.gitlab.io

 This ORCA versions uses:
   CBLAS   interface :  Fast vector & matrix operations
   LAPACKE interface :  Fast linear algebra routines
   SCALAPACK package :  Parallel linear algebra routines
   Shared memory     :  Shared parallel matrices
   BLAS/LAPACK       :  OpenBLAS 0.3.27  USE64BITINT DYNAMIC_ARCH NO_AFFINITY Zen SINGLE_THREADED
        Core in use  :  Zen
   Copyright (c) 2011-2014, The OpenBLAS Project


Warning: RI is on but no J-basis has been assigned. Assigning Def2/J (nothing to worry about!)
================================================================================

----- Orbital basis set information -----
Your calculation utilizes the basis: 6-311G*
   H, Li - Ne  : R. Krishnan, J. S. Binkley, R. Seeger and J. A. Pople, J. Chem. Phys. 72, 650 (1980).
   Na - Ar     : A. D. McLean and G. S. Chandler J. Chem. Phys. 72, 5639, (1980).
   K  - Ca     : J.-P. Blaudeau, M. P. McGrath, L. A. Curtiss and L. Radom, J. Chem. Phys. 107, 5016 (1997).
   Ga - Kr     : L. A. Curtiss, M. P. McGrath, J.-P. Blandeau, N. E. Davis, R. C. Binning and L. Radom, J. Chem. Phys. 103, 6104 (1995).
   Pol./Diff.
   H, Li - Cl  : T. Clark, J. Chandrasekhar and P. v. R. Schleyer, J. Comp. Chem. 4, 294 (1983).
   H - Ne      : M. J. Frisch, J. A. Pople and J. S. Binkley, J. Chem. Phys. 80, 3265 (1984).

----- AuxJ basis set information -----
Your calculation utilizes the auxiliary basis: def2/J
   F. Weigend, Phys. Chem. Chem. Phys. 8, 1057 (2006).

================================================================================
                                        WARNINGS
                       Please study these warnings very carefully!
================================================================================


WARNING: Geometry Optimization
  ===> : Switching off AutoStart
         For restart on a previous wavefunction, please use MOREAD

================================================================================
                                       INPUT FILE
================================================================================
NAME = 6higherenergy.inp
|  1> ! B3LYP/G OPT FREQ 6-311G* CPCM(Water)
|  2> 
|  3> * xyz 0 1 
|  4> C  -3.29921184439669579191 -0.45162748885488657180 -0.51145933460779513524
|  5> C  -2.88749523341894853701 -1.38196709120748040256 -1.46391864040409136472
|  6> C  -1.55235709768345642168 -1.55795970609206624324 -1.71623257511989035784
|  7> C  -2.37179160551955270364 0.30142074193972134832 0.17554097775812160798
|  8> C  -0.98665610260004321663 0.13844401925796900876 -0.05228766127261796903
|  9> O  -2.77897331626587984488 1.19744443718923654352 1.14604095310235143401
| 10> C  -0.58648830868261137006 -0.81187239673735001055 -1.02235698735559243922
| 11> C  0.79827700271735646531 -1.00182264257843223199 -1.30173919535367610401
| 12> C  1.75010831276037293058 -0.28474711600773638942 -0.66414959656355021522
| 13> C  0.02762660792592086523 0.89132762912318708182 0.64279033991142886517
| 14> C  1.39176371710701629603 0.67748363904995223539 0.31936093454803216041
| 15> N  -0.33181316507982905328 1.77808066557021060561 1.58307050656449188608
| 16> C  0.59341583787015106388 2.47015161720673859236 2.20180133678410694387
| 17> C  1.96192325854424587384 2.34429124315032755277 1.94877079534612285272
| 18> C  2.35868379199655198164 1.43437223047995465741 1.00051329554998313931
| 19> C  -3.73659616537838612516 2.11605010419519468101 0.86418990098766901298
| 20> O  -4.28056906625206856631 2.21271574232097911761 -0.22807212982313418426
| 21> N  -3.99725059884335642835 2.90186861786841543420 1.91200059233324126673
| 22> C  -3.30984090740786562890 2.79301661863110606276 3.18075966283575972682
| 23> C  -5.03565380577187049482 3.90454973609885769292 1.82928958272003372443
| 24> H  -4.60761425203824614982 4.89722384655356535177 1.97164146043297416888
| 25> H  -5.78536565115762613232 3.72040463244509922447 2.59925082304283128209
| 26> H  -5.49924350684552365465 3.84871338940217633251 0.84668743254449219116
| 27> H  -2.36433438850898847150 2.27723135049781921779 3.03779214665444730059
| 28> H  -3.92239128683128690511 2.24571505393759585090 3.89947641569021374863
| 29> H  -3.12537419385915971048 3.79691681296295957537 3.55939247525990243304
| 30> H  -1.22380054817876371409 -2.27318552200003942687 -2.45414476804485381933
| 31> H  -4.34930828395222057736 -0.30457263051519722907 -0.31145257725810138183
| 32> H  -3.62989279386764085444 -1.95767523635429729900 -1.99327083637831870000
| 33> H  1.06431974863961165134 -1.73635287427979290165 -2.04624137862877919503
| 34> H  2.79833402781707807350 -0.42450711308642508079 -0.88217395703278933539
| 35> H  0.22830339954147160775 3.16611008838605467730 2.94554841436224279505
| 36> H  2.67438285563647237808 2.94412282769538169447 2.49132636400693474599
| 37> H  3.40303355198354218203 1.28647478235062240337 0.76663522172690401479
| 38> *
| 39> 
| 40>                          ****END OF INPUT****
================================================================================

                       *****************************
                       * Geometry Optimization Run *
                       *****************************

Geometry optimization settings:
Update method            Update   .... BFGS
Choice of coordinates    CoordSys .... (2022) Redundant Internals
Initial Hessian          InHess   .... Almloef's Model
Max. no of cycles        MaxIter  .... 102

Convergence Tolerances:
Energy Change            TolE     ....  5.0000e-06 Eh
Max. Gradient            TolMAXG  ....  3.0000e-04 Eh/bohr
RMS Gradient             TolRMSG  ....  1.0000e-04 Eh/bohr
Max. Displacement        TolMAXD  ....  4.0000e-03 bohr
RMS Displacement         TolRMSD  ....  2.0000e-03 bohr
Strict Convergence                .... False

------------------------------------------------------------------------------
                        ORCA OPTIMIZATION COORDINATE SETUP
------------------------------------------------------------------------------

The optimization will be done in redundant internal coordinates (2022)
Making redundant internal coordinates   ...  (2022 redundants) done
Evaluating the initial hessian          ...  (Almloef) done
Evaluating the coordinates              ...  done
Calculating the B-matrix                .... done
Calculating the G-matrix                .... done
Diagonalizing the G-matrix              .... done
Small eigenvalue found = 2.766e-03
Small eigenvalue found = 8.984e-03
Small eigenvalue found = 1.406e-02
Small eigenvalue found = 2.455e-02
The first mode is                       ....   77
The number of degrees of freedom        ....   96

    -----------------------------------------------------------------
                    Redundant Internal Coordinates


    -----------------------------------------------------------------
         Definition                    Initial Value    Approx d2E/dq
    -----------------------------------------------------------------
      1. B(C   1,C   0)                  1.3936         0.616507   
      2. B(C   2,C   1)                  1.3701         0.672133   
      3. B(C   3,C   0)                  1.3781         0.652716   
      4. B(C   4,C   3)                  1.4132         0.573802   
      5. B(O   5,C   3)                  1.3822         0.575827   
      6. B(C   6,C   4)                  1.4157         0.568460   
      7. B(C   6,C   2)                  1.4039         0.593633   
      8. B(C   7,C   6)                  1.4254         0.548644   
      9. B(C   8,C   7)                  1.3516         0.719574   
     10. B(C   9,C   4)                  1.4418         0.516563   
     11. B(C  10,C   9)                  1.4182         0.563372   
     12. B(C  10,C   8)                  1.4218         0.555854   
     13. B(N  11,C   9)                  1.3415         0.668705   
     14. B(C  12,N  11)                  1.3107         0.748948   
     15. B(C  13,C  12)                  1.3974         0.608079   
     16. B(C  14,C  13)                  1.3728         0.665563   
     17. B(C  14,C  10)                  1.4042         0.593035   
     18. B(C  15,O   5)                  1.3566         0.632688   
     19. B(O  16,C  15)                  1.2240         1.029545   
     20. B(N  17,C  15)                  1.3354         0.683828   
     21. B(C  18,N  17)                  1.4471         0.453689   
     22. B(C  19,N  17)                  1.4459         0.455790   
     23. B(H  20,C  19)                  1.0904         0.359625   
     24. B(H  21,C  19)                  1.0903         0.359665   
     25. B(H  22,C  19)                  1.0879         0.362880   
     26. B(H  23,C  18)                  1.0865         0.364776   
     27. B(H  24,C  18)                  1.0915         0.358158   
     28. B(H  25,C  18)                  1.0887         0.361861   
     29. B(H  26,C   2)                  1.0789         0.375096   
     30. B(H  27,C   0)                  1.0790         0.374893   
     31. B(H  28,C   1)                  1.0783         0.375866   
     32. B(H  29,C   7)                  1.0792         0.374723   
     33. B(H  30,C   8)                  1.0797         0.373928   
     34. B(H  31,C  12)                  1.0820         0.370776   
     35. B(H  32,C  13)                  1.0779         0.376535   
     36. B(H  33,C  14)                  1.0804         0.373042   
     37. A(C   1,C   0,C   3)          120.4423         0.437659   
     38. A(C   3,C   0,H  27)          119.2122         0.358442   
     39. A(C   1,C   0,H  27)          120.3418         0.354984   
     40. A(C   2,C   1,H  28)          120.7911         0.360395   
     41. A(C   0,C   1,C   2)          119.9663         0.439980   
     42. A(C   0,C   1,H  28)          119.2426         0.355140   
     43. A(C   1,C   2,H  26)          120.5215         0.360269   
     44. A(C   1,C   2,C   6)          120.7393         0.436990   
     45. A(C   6,C   2,H  26)          118.7392         0.352750   
     46. A(C   4,C   3,O   5)          118.4699         0.419702   
     47. A(C   0,C   3,C   4)          121.0796         0.432040   
     48. A(C   0,C   3,O   5)          120.3980         0.429489   
     49. A(C   3,C   4,C   9)          123.4761         0.414349   
     50. A(C   3,C   4,C   6)          117.7059         0.421475   
     51. A(C   6,C   4,C   9)          118.8170         0.413661   
     52. A(C   3,O   5,C  15)          120.0683         0.424314   
     53. A(C   4,C   6,C   7)          119.8919         0.418119   
     54. A(C   2,C   6,C   7)          120.0450         0.421362   
     55. A(C   2,C   6,C   4)          120.0610         0.424042   
     56. A(C   6,C   7,H  29)          117.7379         0.348029   
     57. A(C   6,C   7,C   8)          121.4003         0.436155   
     58. A(C   8,C   7,H  29)          120.8609         0.364427   
     59. A(C   7,C   8,H  30)          121.3163         0.364295   
     60. A(C  10,C   8,H  30)          118.1608         0.348670   
     61. A(C   7,C   8,C  10)          120.5228         0.437183   
     62. A(C   4,C   9,C  10)          119.2093         0.413001   
     63. A(C  10,C   9,N  11)          121.1480         0.429669   
     64. A(C   4,C   9,N  11)          119.6426         0.423046   
     65. A(C   9,C  10,C  14)          118.0634         0.423285   
     66. A(C   8,C  10,C  14)          121.7881         0.422270   
     67. A(C   8,C  10,C   9)          120.1477         0.418422   
     68. A(C   9,N  11,C  12)          119.3914         0.449356   
     69. A(N  11,C  12,H  31)          115.2080         0.363986   
     70. A(N  11,C  12,C  13)          123.9381         0.444614   
     71. A(C  13,C  12,H  31)          120.8537         0.353495   
     72. A(C  12,C  13,H  32)          120.4024         0.354419   
     73. A(C  12,C  13,C  14)          117.8930         0.438112   
     74. A(C  14,C  13,H  32)          121.7037         0.359902   
     75. A(C  10,C  14,H  33)          119.1321         0.352363   
     76. A(C  10,C  14,C  13)          119.5596         0.436138   
     77. A(C  13,C  14,H  33)          121.3083         0.359331   
     78. A(O  16,C  15,N  17)          124.5372         0.478232   
     79. A(O   5,C  15,N  17)          111.9146         0.437617   
     80. A(O   5,C  15,O  16)          123.5444         0.471445   
     81. A(C  18,N  17,C  19)          116.3260         0.383973   
     82. A(C  15,N  17,C  19)          120.2233         0.412678   
     83. A(C  15,N  17,C  18)          123.4319         0.412339   
     84. A(H  24,C  18,H  25)          109.1757         0.290815   
     85. A(H  23,C  18,H  25)          109.6377         0.291653   
     86. A(N  17,C  18,H  25)          108.4245         0.333144   
     87. A(H  23,C  18,H  24)          109.6939         0.291182   
     88. A(N  17,C  18,H  24)          110.3929         0.332576   
     89. A(N  17,C  18,H  23)          109.4949         0.333588   
     90. A(H  21,C  19,H  22)          109.6421         0.291136   
     91. A(H  20,C  19,H  22)          109.3859         0.291131   
     92. A(N  17,C  19,H  22)          108.7912         0.333555   
     93. A(H  20,C  19,H  21)          109.3595         0.290724   
     94. A(N  17,C  19,H  21)          109.6523         0.333063   
     95. A(N  17,C  19,H  20)          109.9957         0.333057   
     96. D(H  28,C   1,C   0,C   3)   -179.7256         0.026283   
     97. D(C   2,C   1,C   0,C   3)      0.3962         0.026283   
     98. D(H  28,C   1,C   0,H  27)     -0.4290         0.026283   
     99. D(C   2,C   1,C   0,H  27)    179.6928         0.026283   
    100. D(C   6,C   2,C   1,C   0)      0.1481         0.031610   
    101. D(H  26,C   2,C   1,C   0)   -179.7825         0.031610   
    102. D(C   6,C   2,C   1,H  28)   -179.7281         0.031610   
    103. D(H  26,C   2,C   1,H  28)      0.3413         0.031610   
    104. D(O   5,C   3,C   0,C   1)   -178.2138         0.029681   
    105. D(C   4,C   3,C   0,H  27)    179.8082         0.029681   
    106. D(C   4,C   3,C   0,C   1)     -0.8873         0.029681   
    107. D(O   5,C   3,C   0,H  27)      2.4817         0.029681   
    108. D(C   6,C   4,C   3,O   5)    178.1859         0.022599   
    109. D(C   9,C   4,C   3,C   0)   -179.5711         0.022599   
    110. D(C   9,C   4,C   3,O   5)     -2.1943         0.022599   
    111. D(C   6,C   4,C   3,C   0)      0.8091         0.022599   
    112. D(C  15,O   5,C   3,C   4)    130.8552         0.024095   
    113. D(C  15,O   5,C   3,C   0)    -51.7495         0.024095   
    114. D(C   7,C   6,C   4,C   9)     -0.4426         0.022162   
    115. D(C   7,C   6,C   4,C   3)    179.1954         0.022162   
    116. D(C   2,C   6,C   4,C   9)   -179.9031         0.022162   
    117. D(C   2,C   6,C   4,C   3)     -0.2650         0.022162   
    118. D(C   7,C   6,C   2,H  26)      0.2675         0.024266   
    119. D(C   7,C   6,C   2,C   1)   -179.6643         0.024266   
    120. D(C   4,C   6,C   2,H  26)    179.7271         0.024266   
    121. D(C   4,C   6,C   2,C   1)     -0.2047         0.024266   
    122. D(H  29,C   7,C   6,C   4)    179.8953         0.020588   
    123. D(H  29,C   7,C   6,C   2)     -0.6441         0.020588   
    124. D(C   8,C   7,C   6,C   4)     -0.4311         0.020588   
    125. D(C   8,C   7,C   6,C   2)    179.0294         0.020588   
    126. D(C  10,C   8,C   7,C   6)      0.5858         0.036643   
    127. D(H  30,C   8,C   7,H  29)      0.1281         0.036643   
    128. D(H  30,C   8,C   7,C   6)   -179.5353         0.036643   
    129. D(C  10,C   8,C   7,H  29)   -179.7509         0.036643   
    130. D(N  11,C   9,C   4,C   6)   -178.7531         0.018193   
    131. D(N  11,C   9,C   4,C   3)      1.6312         0.018193   
    132. D(C  10,C   9,C   4,C   6)      1.1410         0.018193   
    133. D(C  10,C   9,C   4,C   3)   -178.4748         0.018193   
    134. D(C  14,C  10,C   9,N  11)     -0.8052         0.021751   
    135. D(C  14,C  10,C   9,C   4)    179.3023         0.021751   
    136. D(C   8,C  10,C   9,N  11)    178.8845         0.021751   
    137. D(C   8,C  10,C   9,C   4)     -1.0080         0.021751   
    138. D(C  14,C  10,C   8,H  30)     -0.0599         0.021153   
    139. D(C  14,C  10,C   8,C   7)    179.8228         0.021153   
    140. D(C   9,C  10,C   8,H  30)   -179.7378         0.021153   
    141. D(C   9,C  10,C   8,C   7)      0.1450         0.021153   
    142. D(C  12,N  11,C   9,C  10)      0.8331         0.033207   
    143. D(C  12,N  11,C   9,C   4)   -179.2750         0.033207   
    144. D(H  31,C  12,N  11,C   9)    179.9123         0.042589   
    145. D(C  13,C  12,N  11,C   9)     -0.2142         0.042589   
    146. D(H  32,C  13,C  12,H  31)     -0.2149         0.025528   
    147. D(H  32,C  13,C  12,N  11)    179.9185         0.025528   
    148. D(C  14,C  13,C  12,H  31)    179.4457         0.025528   
    149. D(C  14,C  13,C  12,N  11)     -0.4209         0.025528   
    150. D(H  33,C  14,C  13,H  32)      0.1440         0.030949   
    151. D(H  33,C  14,C  13,C  12)   -179.5119         0.030949   
    152. D(C  10,C  14,C  13,H  32)   -179.9243         0.030949   
    153. D(C  10,C  14,C  13,C  12)      0.4198         0.030949   
    154. D(H  33,C  14,C  10,C   9)   -179.9093         0.024215   
    155. D(H  33,C  14,C  10,C   8)      0.4064         0.024215   
    156. D(C  13,C  14,C  10,C   9)      0.1575         0.024215   
    157. D(C  13,C  14,C  10,C   8)   -179.5268         0.024215   
    158. D(O  16,C  15,O   5,C   3)     -0.2515         0.029457   
    159. D(N  17,C  15,O   5,C   3)   -179.5684         0.029457   
    160. D(C  19,N  17,C  15,O  16)      3.6199         0.038519   
    161. D(C  19,N  17,C  15,O   5)   -177.0713         0.038519   
    162. D(C  18,N  17,C  15,O  16)   -178.0185         0.038519   
    163. D(C  18,N  17,C  15,O   5)      1.2903         0.038519   
    164. D(H  25,C  18,N  17,C  15)    140.2010         0.017563   
    165. D(H  24,C  18,N  17,C  19)     78.1730         0.017563   
    166. D(H  24,C  18,N  17,C  15)   -100.2475         0.017563   
    167. D(H  23,C  18,N  17,C  19)   -160.9629         0.017563   
    168. D(H  23,C  18,N  17,C  15)     20.6166         0.017563   
    169. D(H  22,C  19,N  17,C  15)      1.1388         0.017728   
    170. D(H  21,C  19,N  17,C  18)    -57.4322         0.017728   
    171. D(H  21,C  19,N  17,C  15)    121.0423         0.017728   
    172. D(H  20,C  19,N  17,C  18)     62.8677         0.017728   
    173. D(H  20,C  19,N  17,C  15)   -118.6578         0.017728   
    -----------------------------------------------------------------

Number of atoms                         .... 34
Number of degrees of freedom            .... 173


         *************************************************************
         *                GEOMETRY OPTIMIZATION CYCLE   1            *
         *************************************************************
---------------------------------
CARTESIAN COORDINATES (ANGSTROEM)
---------------------------------
  C     -3.299212   -0.451627   -0.511459
  C     -2.887495   -1.381967   -1.463919
  C     -1.552357   -1.557960   -1.716233
  C     -2.371792    0.301421    0.175541
  C     -0.986656    0.138444   -0.052288
  O     -2.778973    1.197444    1.146041
  C     -0.586488   -0.811872   -1.022357
  C      0.798277   -1.001823   -1.301739
  C      1.750108   -0.284747   -0.664150
  C      0.027627    0.891328    0.642790
  C      1.391764    0.677484    0.319361
  N     -0.331813    1.778081    1.583071
  C      0.593416    2.470152    2.201801
  C      1.961923    2.344291    1.948771
  C      2.358684    1.434372    1.000513
  C     -3.736596    2.116050    0.864190
  O     -4.280569    2.212716   -0.228072
  N     -3.997251    2.901869    1.912001
  C     -3.309841    2.793017    3.180760
  C     -5.035654    3.904550    1.829290
  H     -4.607614    4.897224    1.971641
  H     -5.785366    3.720405    2.599251
  H     -5.499244    3.848713    0.846687
  H     -2.364334    2.277231    3.037792
  H     -3.922391    2.245715    3.899476
  H     -3.125374    3.796917    3.559392
  H     -1.223801   -2.273186   -2.454145
  H     -4.349308   -0.304573   -0.311453
  H     -3.629893   -1.957675   -1.993271
  H      1.064320   -1.736353   -2.046241
  H      2.798334   -0.424507   -0.882174
  H      0.228303    3.166110    2.945548
  H      2.674383    2.944123    2.491326
  H      3.403034    1.286475    0.766635

----------------------------
CARTESIAN COORDINATES (A.U.)
----------------------------
  NO LB      ZA    FRAG     MASS         X           Y           Z
   0 C     6.0000    0    12.011   -6.234607   -0.853452   -0.966518
   1 C     6.0000    0    12.011   -5.456575   -2.611539   -2.766405
   2 C     6.0000    0    12.011   -2.933530   -2.944117   -3.243210
   3 C     6.0000    0    12.011   -4.482037    0.569603    0.331724
   4 C     6.0000    0    12.011   -1.864510    0.261621   -0.098809
   5 O     8.0000    0    15.999   -5.251499    2.262842    2.165704
   6 C     6.0000    0    12.011   -1.108302   -1.534216   -1.931975
   7 C     6.0000    0    12.011    1.508525   -1.893170   -2.459931
   8 C     6.0000    0    12.011    3.307225   -0.538094   -1.255061
   9 C     6.0000    0    12.011    0.052207    1.684365    1.214698
  10 C     6.0000    0    12.011    2.630052    1.280259    0.603505
  11 N     7.0000    0    14.007   -0.627036    3.360086    2.991570
  12 C     6.0000    0    12.011    1.121393    4.667910    4.160802
  13 C     6.0000    0    12.011    3.707498    4.430068    3.682643
  14 C     6.0000    0    12.011    4.457266    2.710571    1.890696
  15 C     6.0000    0    12.011   -7.061143    3.998755    1.633082
  16 O     8.0000    0    15.999   -8.089103    4.181427   -0.430994
  17 N     7.0000    0    14.007   -7.553709    5.483737    3.613157
  18 C     6.0000    0    12.011   -6.254693    5.278036    6.010765
  19 C     6.0000    0    12.011   -9.516007    7.378530    3.456856
  20 H     1.0000    0     1.008   -8.707129    9.254412    3.725862
  21 H     1.0000    0     1.008  -10.932757    7.030546    4.911872
  22 H     1.0000    0     1.008  -10.392064    7.273014    1.600007
  23 H     1.0000    0     1.008   -4.467944    4.303344    5.740595
  24 H     1.0000    0     1.008   -7.412245    4.243786    7.368942
  25 H     1.0000    0     1.008   -5.906101    7.175133    6.726277
  26 H     1.0000    0     1.008   -2.312648   -4.295698   -4.637662
  27 H     1.0000    0     1.008   -8.219002   -0.575559   -0.588560
  28 H     1.0000    0     1.008   -6.859503   -3.699470   -3.766736
  29 H     1.0000    0     1.008    2.011273   -3.281231   -3.866836
  30 H     1.0000    0     1.008    5.288085   -0.802202   -1.667067
  31 H     1.0000    0     1.008    0.431431    5.983081    5.566280
  32 H     1.0000    0     1.008    5.053851    5.563586    4.707925
  33 H     1.0000    0     1.008    6.430801    2.431085    1.448731

--------------------------------
INTERNAL COORDINATES (ANGSTROEM)
--------------------------------
 C      0   0   0     0.000000000000     0.00000000     0.00000000
 C      1   0   0     1.393635918258     0.00000000     0.00000000
 C      2   1   0     1.370120273422   119.96625086     0.00000000
 C      1   2   3     1.378099911680   120.44231328     0.39619905
 C      4   1   2     1.413176444166   121.07963517   359.11268941
 O      4   1   2     1.382217642109   120.39804572   181.78621672
 C      3   2   1     1.403927392012   120.73927069     0.14813169
 C      7   3   2     1.425380819886   120.04497466   180.33566292
 C      8   7   3     1.351554900872   121.40028771   179.02942517
 C      5   4   1     1.441782429705   123.47606329   180.42889224
 C     10   5   4     1.418169906954   119.20929114   181.52522696
 N     10   5   4     1.341512090839   119.64257870     1.63115495
 C     12  10   5     1.310663477123   119.39141468   180.72503378
 C     13  12  10     1.397382499210   123.93813186   359.78578562
 C     14  13  12     1.372794163902   117.89297581   359.57908691
 C      6   4   1     1.356583174072   120.06832907   308.25054044
 O     16   6   4     1.224045385772   123.54435342   359.74845071
 N     16   6   4     1.335424544860   111.91463665   180.43164397
 C     18  16   6     1.447111060216   123.43185400     1.29028156
 C     18  16   6     1.445853296890   120.22332660   182.92865009
 H     20  18  16     1.090359484856   109.99571349   241.34218248
 H     20  18  16     1.090329116327   109.65230277   121.04228390
 H     20  18  16     1.087906289201   108.79115939     1.13882760
 H     19  18  16     1.086488256166   109.49493711    20.61655692
 H     19  18  16     1.091471823219   110.39292900   259.75250052
 H     19  18  16     1.088671840010   108.42448606   140.20098735
 H      3   2   1     1.078893775323   120.52150222   180.21754384
 H      1   2   3     1.079041411028   120.34181553   179.69279059
 H      2   1   3     1.078335640481   119.24255183   179.87816760
 H      8   7   3     1.079164910865   117.73794689   359.35592149
 H      9   8   7     1.079742852835   121.31630351   180.46473839
 H     13  12  10     1.082046672577   115.20801412   179.91231501
 H     14  13  12     1.077851173582   120.40242704   179.91848516
 H     15  14  13     1.080388369876   121.30826920   180.48810709

---------------------------
INTERNAL COORDINATES (A.U.)
---------------------------
 C      0   0   0     0.000000000000     0.00000000     0.00000000
 C      1   0   0     2.633590215903     0.00000000     0.00000000
 C      2   1   0     2.589152087300   119.96625086     0.00000000
 C      1   2   3     2.604231418256   120.44231328     0.39619905
 C      4   1   2     2.670516458383   121.07963517   359.11268941
 O      4   1   2     2.612012801061   120.39804572   181.78621672
 C      3   2   1     2.653038282813   120.73927069     0.14813169
 C      7   3   2     2.693579386128   120.04497466   180.33566292
 C      8   7   3     2.554068617607   121.40028771   179.02942517
 C      5   4   1     2.724573936842   123.47606329   180.42889224
 C     10   5   4     2.679952735511   119.20929114   181.52522696
 N     10   5   4     2.535090457030   119.64257870     1.63115495
 C     12  10   5     2.476795025495   119.39141468   180.72503378
 C     13  12  10     2.640670227841   123.93813186   359.78578562
 C     14  13  12     2.594205008021   117.89297581   359.57908691
 C      6   4   1     2.563570676882   120.06832907   308.25054044
 O     16   6   4     2.313110554599   123.54435342   359.74845071
 N     16   6   4     2.523586662302   111.91463665   180.43164397
 C     18  16   6     2.734643589177   123.43185400     1.29028156
 C     18  16   6     2.732266760948   120.22332660   182.92865009
 H     20  18  16     2.060480813902   109.99571349   241.34218248
 H     20  18  16     2.060423425699   109.65230277   121.04228390
 H     20  18  16     2.055844945961   108.79115939     1.13882760
 H     19  18  16     2.053165251875   109.49493711    20.61655692
 H     19  18  16     2.062582828776   110.39292900   259.75250052
 H     19  18  16     2.057291627331   108.42448606   140.20098735
 H      3   2   1     2.038813762953   120.52150222   180.21754384
 H      1   2   3     2.039092754004   120.34181553   179.69279059
 H      2   1   3     2.037759040955   119.24255183   179.87816760
 H      8   7   3     2.039326134873   117.73794689   359.35592149
 H      9   8   7     2.040418286916   121.31630351   180.46473839
 H     13  12  10     2.044771875291   115.20801412   179.91231501
 H     14  13  12     2.036843531195   120.40242704   179.91848516
 H     15  14  13     2.041638137339   121.30826920   180.48810709

---------------------
BASIS SET INFORMATION
---------------------
There are 4 groups of distinct atoms

 Group   1 Type C   : 11s5p1d contracted to 4s3p1d pattern {6311/311/1}
 Group   2 Type O   : 11s5p1d contracted to 4s3p1d pattern {6311/311/1}
 Group   3 Type N   : 11s5p1d contracted to 4s3p1d pattern {6311/311/1}
 Group   4 Type H   : 5s contracted to 3s pattern {311}

Atom   0C    basis set group =>   1
Atom   1C    basis set group =>   1
Atom   2C    basis set group =>   1
Atom   3C    basis set group =>   1
Atom   4C    basis set group =>   1
Atom   5O    basis set group =>   2
Atom   6C    basis set group =>   1
Atom   7C    basis set group =>   1
Atom   8C    basis set group =>   1
Atom   9C    basis set group =>   1
Atom  10C    basis set group =>   1
Atom  11N    basis set group =>   3
Atom  12C    basis set group =>   1
Atom  13C    basis set group =>   1
Atom  14C    basis set group =>   1
Atom  15C    basis set group =>   1
Atom  16O    basis set group =>   2
Atom  17N    basis set group =>   3
Atom  18C    basis set group =>   1
Atom  19C    basis set group =>   1
Atom  20H    basis set group =>   4
Atom  21H    basis set group =>   4
Atom  22H    basis set group =>   4
Atom  23H    basis set group =>   4
Atom  24H    basis set group =>   4
Atom  25H    basis set group =>   4
Atom  26H    basis set group =>   4
Atom  27H    basis set group =>   4
Atom  28H    basis set group =>   4
Atom  29H    basis set group =>   4
Atom  30H    basis set group =>   4
Atom  31H    basis set group =>   4
Atom  32H    basis set group =>   4
Atom  33H    basis set group =>   4
---------------------------------
AUXILIARY/J BASIS SET INFORMATION
---------------------------------
There are 4 groups of distinct atoms

 Group   1 Type C   : 12s5p4d2f1g contracted to 6s4p3d1f1g pattern {711111/2111/211/2/1}
 Group   2 Type O   : 12s5p4d2f1g contracted to 6s4p3d1f1g pattern {711111/2111/211/2/1}
 Group   3 Type N   : 12s5p4d2f1g contracted to 6s4p3d1f1g pattern {711111/2111/211/2/1}
 Group   4 Type H   : 5s2p1d contracted to 3s1p1d pattern {311/2/1}

Atom   0C    basis set group =>   1
Atom   1C    basis set group =>   1
Atom   2C    basis set group =>   1
Atom   3C    basis set group =>   1
Atom   4C    basis set group =>   1
Atom   5O    basis set group =>   2
Atom   6C    basis set group =>   1
Atom   7C    basis set group =>   1
Atom   8C    basis set group =>   1
Atom   9C    basis set group =>   1
Atom  10C    basis set group =>   1
Atom  11N    basis set group =>   3
Atom  12C    basis set group =>   1
Atom  13C    basis set group =>   1
Atom  14C    basis set group =>   1
Atom  15C    basis set group =>   1
Atom  16O    basis set group =>   2
Atom  17N    basis set group =>   3
Atom  18C    basis set group =>   1
Atom  19C    basis set group =>   1
Atom  20H    basis set group =>   4
Atom  21H    basis set group =>   4
Atom  22H    basis set group =>   4
Atom  23H    basis set group =>   4
Atom  24H    basis set group =>   4
Atom  25H    basis set group =>   4
Atom  26H    basis set group =>   4
Atom  27H    basis set group =>   4
Atom  28H    basis set group =>   4
Atom  29H    basis set group =>   4
Atom  30H    basis set group =>   4
Atom  31H    basis set group =>   4
Atom  32H    basis set group =>   4
Atom  33H    basis set group =>   4
------------------------------------------------------------------------------
                             ORCA STARTUP CALCULATIONS
                           -- RI-GTO INTEGRALS CHOSEN --
------------------------------------------------------------------------------
------------------------------------------------------------------------------
                   ___                                                        
                  /   \      - P O W E R E D   B Y -                         
                 /     \                                                     
                 |  |  |   _    _      __       _____    __    __             
                 |  |  |  | |  | |    /  \     |  _  \  |  |  /  |          
                  \  \/   | |  | |   /    \    | | | |  |  | /  /          
                 / \  \   | |__| |  /  /\  \   | |_| |  |  |/  /          
                |  |  |   |  __  | /  /__\  \  |    /   |      \           
                |  |  |   | |  | | |   __   |  |    \   |  |\   \          
                \     /   | |  | | |  |  |  |  | |\  \  |  | \   \       
                 \___/    |_|  |_| |__|  |__|  |_| \__\ |__|  \__/        
                                                                              
                      - O R C A' S   B I G   F R I E N D -                    
                                      &                                       
                       - I N T E G R A L  F E E D E R -                       
                                                                              
 v1 FN, 2020, v2 2021, v3 2022-2024                                           
------------------------------------------------------------------------------


----------------------
SHARK INTEGRAL PACKAGE
----------------------

Number of atoms                             ...     34
Number of basis functions                   ...    402
Number of shells                            ...    202
Maximum angular momentum                    ...      2
Integral batch strategy                     ... SHARK/LIBINT Hybrid
RI-J (if used) integral strategy            ... SPLIT-RIJ (Revised 2003 algorithm where possible)
Printlevel                                  ...      1
Contraction scheme used                     ... SEGMENTED contraction
Prescreening option                         ... SCHWARTZ
   Thresh                                   ... 2.500e-11
   Tcut                                     ... 2.500e-12
   Tpresel                                  ... 2.500e-12 
Coulomb Range Separation                    ... NOT USED
Exchange Range Separation                   ... NOT USED
Multipole approximations                    ... NOT USED
Finite Nucleus Model                        ... NOT USED
CABS basis                                  ... NOT available
Auxiliary Coulomb fitting basis             ... AVAILABLE
   # of basis functions in Aux-J            ...   1134
   # of shells in Aux-J                     ...    370
   Maximum angular momentum in Aux-J        ...      4
Auxiliary J/K fitting basis                 ... NOT available
Auxiliary Correlation fitting basis         ... NOT available
Auxiliary 'external' fitting basis          ... NOT available

Checking pre-screening integrals            ... done (  0.0 sec) Dimension = 202
Check shell pair data                       ... done (  0.0 sec)
Shell pair information
Shell pair cut-off parameter TPreSel        ...   2.5e-12
Total number of shell pairs                 ...     20503
Shell pairs after pre-screening             ...     14856
Total number of primitive shell pairs       ...     84717
Primitive shell pairs kept                  ...     37249
          la=0 lb=0:   5088 shell pairs
          la=1 lb=0:   5518 shell pairs
          la=1 lb=1:   1511 shell pairs
          la=2 lb=0:   1647 shell pairs
          la=2 lb=1:    936 shell pairs
          la=2 lb=2:    156 shell pairs

Calculating one electron integrals          ... done (  0.1 sec)
Calculating RI/J V-Matrix + Cholesky decomp.... done (  0.2 sec)
Calculating Nuclear repulsion               ... done (  0.0 sec) ENN=   1503.685807776708 Eh

Diagonalization of the overlap matrix:
Smallest eigenvalue                        ... 7.731e-05
Time for diagonalization                   ...    0.024 sec
Threshold for overlap eigenvalues          ... 1.000e-07
Number of eigenvalues below threshold      ... 0
Time for construction of square roots      ...    0.021 sec
Total time needed                          ...    0.063 sec

-------------------
DFT GRID GENERATION
-------------------

General Integration Accuracy     IntAcc      ... 4.388
Radial Grid Type                 RadialGrid  ... OptM3 with GC (2021)
Angular Grid (max. ang.)         AngularGrid ... 4 (Lebedev-302)
Angular grid pruning method      GridPruning ... 4 (adaptive)
Weight generation scheme         WeightScheme... mBecke (2022)
Basis function cutoff            BFCut       ... 1.0000e-11
Integration weight cutoff        WCut        ... 1.0000e-14
Partially contracted basis set               ... off
Rotationally invariant grid construction     ... off
Angular grids for H and He will be reduced by one unit

Total number of grid points                  ...   164438
Total number of batches                      ...     2586
Average number of points per batch           ...       63
Average number of grid points per atom       ...     4836

--------------------
COSX GRID GENERATION
--------------------

GRIDX 1
-------
General Integration Accuracy     IntAcc      ... 3.816
Radial Grid Type                 RadialGrid  ... OptM3 with GC (2021)
Angular Grid (max. ang.)         AngularGrid ... 1 (Lebedev-50)
Angular grid pruning method      GridPruning ... 4 (adaptive)
Weight generation scheme         WeightScheme... mBecke (2022)
Basis function cutoff            BFCut       ... 1.0000e-11
Integration weight cutoff        WCut        ... 1.0000e-14
Partially contracted basis set               ... on
Rotationally invariant grid construction     ... off
Angular grids for H and He will be reduced by one unit

Total number of grid points                  ...    20910
Total number of batches                      ...      179
Average number of points per batch           ...      116
Average number of grid points per atom       ...      615
UseSFitting                                  ... on

GRIDX 2
-------
General Integration Accuracy     IntAcc      ... 4.020
Radial Grid Type                 RadialGrid  ... OptM3 with GC (2021)
Angular Grid (max. ang.)         AngularGrid ... 2 (Lebedev-110)
Angular grid pruning method      GridPruning ... 4 (adaptive)
Weight generation scheme         WeightScheme... mBecke (2022)
Basis function cutoff            BFCut       ... 1.0000e-11
Integration weight cutoff        WCut        ... 1.0000e-14
Partially contracted basis set               ... on
Rotationally invariant grid construction     ... off
Angular grids for H and He will be reduced by one unit

Total number of grid points                  ...    45676
Total number of batches                      ...      371
Average number of points per batch           ...      123
Average number of grid points per atom       ...     1343
UseSFitting                                  ... on

GRIDX 3
-------
General Integration Accuracy     IntAcc      ... 4.338
Radial Grid Type                 RadialGrid  ... OptM3 with GC (2021)
Angular Grid (max. ang.)         AngularGrid ... 3 (Lebedev-194)
Angular grid pruning method      GridPruning ... 4 (adaptive)
Weight generation scheme         WeightScheme... mBecke (2022)
Basis function cutoff            BFCut       ... 1.0000e-11
Integration weight cutoff        WCut        ... 1.0000e-14
Partially contracted basis set               ... on
Rotationally invariant grid construction     ... off
Angular grids for H and He will be reduced by one unit

Total number of grid points                  ...   100071
Total number of batches                      ...      800
Average number of points per batch           ...      125
Average number of grid points per atom       ...     2943
UseSFitting                                  ... on
Initializing property integral containers    ... done (  0.0 sec)

SHARK setup successfully completed in   6.0 seconds

Maximum memory used throughout the entire STARTUP-calculation: 79.7 MB
-------------------------------------------------------------------------------
                                 ORCA GUESS
                   Start orbitals & Density for SCF / CASSCF
-------------------------------------------------------------------------------

------------
SCF SETTINGS
------------
Hamiltonian:
 Density Functional     Method          .... DFT(GTOs)
 Exchange Functional    Exchange        .... B88
   X-Alpha parameter    XAlpha          ....  0.666667
   Becke's b parameter  XBeta           ....  0.004200
 Correlation Functional Correlation     .... LYP
 LDA part of GGA corr.  LDAOpt          .... VWN-3
 Gradients option       PostSCFGGA      .... off
 Hybrid DFT is turned on
   Fraction HF Exchange ScalHFX         ....  0.200000
   Scaling of DF-GGA-X  ScalDFX         ....  0.720000
   Scaling of DF-GGA-C  ScalDFC         ....  0.810000
   Scaling of DF-LDA-C  ScalLDAC        ....  1.000000
   Perturbative correction              ....  0.000000
   NL short-range parameter             ....  4.800000
 RI-approximation to the Coulomb term is turned on
   Number of AuxJ basis functions       .... 1134
   RIJ-COSX (HFX calculated with COS-X)).... on


General Settings:
 Integral files         IntName         .... 6higherenergy
 Hartree-Fock type      HFTyp           .... RHF
 Total Charge           Charge          ....    0
 Multiplicity           Mult            ....    1
 Number of Electrons    NEL             ....  140
 Basis Dimension        Dim             ....  402
 Nuclear Repulsion      ENuc            ....   1503.6858077767 Eh

Convergence Acceleration:
 AO-DIIS                CNVDIIS         .... on
   Start iteration      DIISMaxIt       ....    12
   Startup error        DIISStart       ....  0.200000
   # of expansion vecs  DIISMaxEq       ....     5
   Bias factor          DIISBfac        ....   1.050
   Max. coefficient     DIISMaxC        ....  10.000
 MO-DIIS                CNVKDIIS        .... off
 Trust-Rad. Augm. Hess. CNVTRAH         .... auto
   Auto Start mean grad. ratio tolernc. ....  1.125000
   Auto Start start iteration           ....    50
   Auto Start num. interpolation iter.  ....    10
   Max. Number of Micro iterations      ....    24
   Max. Number of Macro iterations      .... Maxiter - #DIIS iter
   Number of Davidson start vectors     ....     2
   Converg. threshold    (grad. norm)   ....   1.000e-05
   Grad. Scal. Fac. for Micro threshold ....   0.100
   Minimum threshold for Micro iter.    ....   1.000e-02
   NR start threshold (gradient norm)   ....   1.000e-04
   Initial trust radius                 ....   0.400
   Minimum AH scaling param. (alpha)    ....   1.000
   Maximum AH scaling param. (alpha)    .... 1000.000
   Quad. conv. algorithm                .... NR
   White noise on init. David. guess    .... on
   Maximum white noise                  ....   0.010
   Pseudo random numbers                .... off
   Inactive MOs                         .... canonical
   Orbital update algorithm             .... Taylor
   Preconditioner                       .... Diag
   Full preconditioner red. dimension   ....   250
 SOSCF                  CNVSOSCF        .... on
   Start iteration      SOSCFMaxIt      ....   150
   Startup grad/error   SOSCFStart      ....  0.003300
   Hessian update       SOSCFHessUp     .... L-BFGS
 Level Shifting         CNVShift        .... on
   Level shift para.    LevelShift      ....    0.2500
   Turn off err/grad.   ShiftErr        ....    0.0010
 Zerner damping         CNVZerner       .... off
 Static damping         CNVDamp         .... on
   Fraction old density DampFac         ....    0.7000
   Max. Damping (<1)    DampMax         ....    0.9800
   Min. Damping (>=0)   DampMin         ....    0.0000
   Turn off err/grad.   DampErr         ....    0.1000

SCF Procedure:
 Maximum # iterations   MaxIter         ....   125
 SCF integral mode      SCFMode         .... Direct
   Integral package                     .... SHARK and LIBINT hybrid scheme
 Reset frequency        DirectResetFreq ....    20
 Integral Threshold     Thresh          ....  2.500e-11 Eh
 Primitive CutOff       TCut            ....  2.500e-12 Eh

Convergence Tolerance:
 Convergence Check Mode ConvCheckMode   .... Total+1el-Energy
 Convergence forced     ConvForced      .... 0
 Energy Change          TolE            ....  1.000e-08 Eh
 1-El. energy change                    ....  1.000e-05 Eh
 Orbital Gradient       TolG            ....  1.000e-05
 Orbital Rotation angle TolX            ....  1.000e-05
 DIIS Error             TolErr          ....  5.000e-07

------------------------------
INITIAL GUESS: MODEL POTENTIAL
------------------------------
Loading Hartree-Fock densities                     ... done
Calculating cut-offs                               ... done
Initializing the effective Hamiltonian             ... done
Setting up the integral package (SHARK)            ... done
Starting the Coulomb interaction                   ... done (   1.0 sec)
Making the grid                                    ... done (   0.6 sec)
Mapping shells                                     ... done
Starting the XC term evaluation                    ... done (   0.6 sec)
  promolecular density results
     # of electrons  =    139.985408521
     EX              =   -116.099698113
     EC              =     -4.792475806
     EX+EC           =   -120.892173919
Transforming the Hamiltonian                       ... done (   0.0 sec)
Diagonalizing the Hamiltonian                      ... done (   0.0 sec)
Back transforming the eigenvectors                 ... done (   0.0 sec)
Now organizing SCF variables                       ... done
                      ------------------
                      INITIAL GUESS DONE (   2.3 sec)
                      ------------------
             **** ENERGY FILE WAS UPDATED (6higherenergy.en.tmp) ****
Finished Guess after   2.8 sec
Maximum memory used throughout the entire GUESS-calculation: 47.6 MB

-------------------------------------------------------------------------------------------
                                      ORCA LEAN-SCF
                              memory conserving SCF solver
-------------------------------------------------------------------------------------------

--------------------
CPCM SOLVATION MODEL
--------------------
CPCM parameters:
  Epsilon                                         ...      80.1510
  Refrac                                          ...       1.3328
  Rsolv                                           ...       1.3000
  Surface type                                    ... GAUSSIAN VDW
  Discretization scheme                           ... Constant charge density
    Threshold for H atoms                         ...       5.0000 (charges/Ang^2)
    Threshold for non-H atoms                     ...       5.0000 (charges/Ang^2)
  Epsilon function type                           ...         CPCM
Solvent:                                          ... WATER
Radii:
  Scheme                                          ... Element-dependent radii
  Radius for C  used is    3.8550 Bohr (=   2.0400 Ang.)
  Radius for O  used is    3.4469 Bohr (=   1.8240 Ang.)
  Radius for N  used is    3.5149 Bohr (=   1.8600 Ang.)
  Radius for H  used is    2.4944 Bohr (=   1.3200 Ang.)
Calculating surface                               ...        done! (  0.0s)
Cavity surface points                             ...         2975
Cavity Volume                                     ...    2103.7225
Cavity Surface-area                               ...    1062.2712
Calculating surface distance matrix               ...        done! (  0.0s)
Performing Cholesky decomposition & store         ...        done! (  0.9s)
Overall time for CPCM initialization              ...                 1.0s

----------------------------------------D-I-I-S--------------------------------------------
Iteration    Energy (Eh)           Delta-E    RMSDP     MaxDP     DIISErr   Damp  Time(sec)
-------------------------------------------------------------------------------------------
               ***  Starting incremental Fock matrix formation  ***
    1    -877.8312003918993014     0.00e+00  1.95e-03  7.58e-02  3.50e-01  0.700  27.2
    2    -878.0537233376887798    -2.23e-01  1.46e-03  4.82e-02  1.35e-01  0.700  14.8
                               ***Turning on AO-DIIS***
    3    -878.1456253752451175    -9.19e-02  6.41e-04  1.90e-02  4.02e-02  0.700  14.6
    4    -878.2008944167284881    -5.53e-02  1.01e-03  2.56e-02  2.11e-02  0.000  14.0
    5    -878.3206808050674681    -1.20e-01  2.38e-04  6.25e-03  5.21e-03  0.000  14.5
                              *** Initializing SOSCF ***
---------------------------------------S-O-S-C-F--------------------------------------
Iteration    Energy (Eh)           Delta-E    RMSDP     MaxDP     MaxGrad    Time(sec)
--------------------------------------------------------------------------------------
    6    -878.3212637660974451    -5.83e-04  6.68e-05  1.69e-03  1.91e-03    13.3
               *** Restarting incremental Fock matrix formation ***
    7    -878.3212784155036843    -1.46e-05  3.90e-05  1.57e-03  3.75e-04    27.3
    8    -878.3212671907065214     1.12e-05  1.97e-05  9.95e-04  7.10e-04    18.3
    9    -878.3212861852164224    -1.90e-05  3.14e-06  1.03e-04  2.17e-05    16.5
   10    -878.3212861155213886     6.97e-08  1.65e-06  6.97e-05  3.59e-05    14.2
   11    -878.3212862357829636    -1.20e-07  5.25e-07  1.97e-05  4.15e-06    12.9
   12    -878.3212862265347667     9.25e-09  2.76e-07  1.27e-05  5.90e-06    11.2
                 **** Energy Check signals convergence ****

               *****************************************************
               *                     SUCCESS                       *
               *           SCF CONVERGED AFTER  12 CYCLES          *
               *****************************************************

Recomputing exchange energy using gridx3       ... done (   40.774 sec)
Old exchange energy                            :    -23.582971515 Eh
New exchange energy                            :    -23.582970177 Eh
Exchange energy change after final integration :      0.000001339 Eh
Total energy after final integration           :   -878.321284888 Eh
             **** ENERGY FILE WAS UPDATED (6higherenergy.en.tmp) ****

----------------
TOTAL SCF ENERGY
----------------

Total Energy       :       -878.32128488784133 Eh          -23900.33723 eV

Components:
Nuclear Repulsion  :       1503.68580777670809 Eh           40917.37103 eV
Electronic Energy  :      -2381.98682776867781 Eh          -64817.15682 eV
One Electron Energy:      -4180.33231121565404 Eh         -113752.62526 eV
Two Electron Energy:       1798.34548344697623 Eh           48935.46844 eV
CPCM Dielectric    :         -0.02026623456503 Eh              -0.55147 eV

Virial components:
Potential Energy   :      -1753.88362939790136 Eh          -47725.59988 eV
Kinetic Energy     :        875.56234451006003 Eh           23825.26265 eV
Virial Ratio       :          2.00315104960267

DFT components:
N(Alpha)           :       70.000031801419 electrons
N(Beta)            :       70.000031801419 electrons
N(Total)           :      140.000063602838 electrons
E(X)               :      -93.741975221287 Eh       
E(C)               :       -6.164308396657 Eh       
E(XC)              :      -99.906283617944 Eh       

CPCM Solvation Model Properties:
Surface-charge          :         -0.02783902853664
Corrected charge        :          0.00000000000000
Outlying charge corr.   :          0.00004356549760 Eh               0.00119 eV
Free-energy (cav+disp)  :  This term is not implemented in the current solvation scheme

---------------
SCF CONVERGENCE
---------------

  Last Energy change         ...   -9.2482e-09  Tolerance :   1.0000e-08
  Last MAX-Density change    ...    1.2714e-05  Tolerance :   1.0000e-07
  Last RMS-Density change    ...    2.7614e-07  Tolerance :   5.0000e-09
  Last DIIS Error            ...    1.9107e-03  Tolerance :   5.0000e-07
  Last Orbital Gradient      ...    5.8998e-06  Tolerance :   1.0000e-05
  Last Orbital Rotation      ...    9.6363e-06  Tolerance :   1.0000e-05


----------------
ORBITAL ENERGIES
----------------

  NO   OCC          E(Eh)            E(eV) 
   0   2.0000     -19.168329      -521.5968 
   1   2.0000     -19.085553      -519.3443 
   2   2.0000     -14.343681      -390.3114 
   3   2.0000     -14.306000      -389.2861 
   4   2.0000     -10.317658      -280.7577 
   5   2.0000     -10.246343      -278.8172 
   6   2.0000     -10.220060      -278.1020 
   7   2.0000     -10.206963      -277.7456 
   8   2.0000     -10.194698      -277.4118 
   9   2.0000     -10.192916      -277.3633 
  10   2.0000     -10.192310      -277.3468 
  11   2.0000     -10.192151      -277.3425 
  12   2.0000     -10.190404      -277.2950 
  13   2.0000     -10.188916      -277.2545 
  14   2.0000     -10.180272      -277.0193 
  15   2.0000     -10.180188      -277.0170 
  16   2.0000     -10.179521      -276.9989 
  17   2.0000     -10.179288      -276.9925 
  18   2.0000     -10.177477      -276.9432 
  19   2.0000     -10.175510      -276.8897 
  20   2.0000      -1.122725       -30.5509 
  21   2.0000      -1.023059       -27.8389 
  22   2.0000      -0.959949       -26.1215 
  23   2.0000      -0.950566       -25.8662 
  24   2.0000      -0.884904       -24.0795 
  25   2.0000      -0.841503       -22.8985 
  26   2.0000      -0.809432       -22.0258 
  27   2.0000      -0.787456       -21.4278 
  28   2.0000      -0.754087       -20.5198 
  29   2.0000      -0.745595       -20.2887 
  30   2.0000      -0.722960       -19.6727 
  31   2.0000      -0.708990       -19.2926 
  32   2.0000      -0.656412       -17.8619 
  33   2.0000      -0.650516       -17.7014 
  34   2.0000      -0.641750       -17.4629 
  35   2.0000      -0.615615       -16.7517 
  36   2.0000      -0.580396       -15.7934 
  37   2.0000      -0.546487       -14.8707 
  38   2.0000      -0.537236       -14.6189 
  39   2.0000      -0.529528       -14.4092 
  40   2.0000      -0.520590       -14.1660 
  41   2.0000      -0.497428       -13.5357 
  42   2.0000      -0.492372       -13.3981 
  43   2.0000      -0.485342       -13.2068 
  44   2.0000      -0.479313       -13.0428 
  45   2.0000      -0.466528       -12.6949 
  46   2.0000      -0.446864       -12.1598 
  47   2.0000      -0.446268       -12.1436 
  48   2.0000      -0.440040       -11.9741 
  49   2.0000      -0.429794       -11.6953 
  50   2.0000      -0.423669       -11.5286 
  51   2.0000      -0.413182       -11.2433 
  52   2.0000      -0.407990       -11.1020 
  53   2.0000      -0.407667       -11.0932 
  54   2.0000      -0.403097       -10.9688 
  55   2.0000      -0.401709       -10.9311 
  56   2.0000      -0.386162       -10.5080 
  57   2.0000      -0.385341       -10.4857 
  58   2.0000      -0.371734       -10.1154 
  59   2.0000      -0.363488        -9.8910 
  60   2.0000      -0.356092        -9.6898 
  61   2.0000      -0.340310        -9.2603 
  62   2.0000      -0.324016        -8.8169 
  63   2.0000      -0.308821        -8.4035 
  64   2.0000      -0.283605        -7.7173 
  65   2.0000      -0.279398        -7.6028 
  66   2.0000      -0.254057        -6.9133 
  67   2.0000      -0.248965        -6.7747 
  68   2.0000      -0.244894        -6.6639 
  69   2.0000      -0.225465        -6.1352 
  70   0.0000      -0.058457        -1.5907 
  71   0.0000      -0.050635        -1.3778 
  72   0.0000      -0.011056        -0.3008 
  73   0.0000       0.015770         0.4291 
  74   0.0000       0.046838         1.2745 
  75   0.0000       0.048902         1.3307 
  76   0.0000       0.058884         1.6023 
  77   0.0000       0.063481         1.7274 
  78   0.0000       0.065514         1.7827 
  79   0.0000       0.079036         2.1507 
  80   0.0000       0.087798         2.3891 
*Only the first 10 virtual orbitals were printed.

                    ********************************
                    * MULLIKEN POPULATION ANALYSIS *
                    ********************************

-----------------------
MULLIKEN ATOMIC CHARGES
-----------------------
   0 C :   -0.210767
   1 C :   -0.222020
   2 C :   -0.228019
   3 C :    0.202454
   4 C :    0.007121
   5 O :   -0.337271
   6 C :    0.006607
   7 C :   -0.228787
   8 C :   -0.233129
   9 C :    0.108884
  10 C :   -0.011588
  11 N :   -0.336455
  12 C :   -0.050594
  13 C :   -0.289734
  14 C :   -0.105537
  15 C :    0.529547
  16 O :   -0.464783
  17 N :   -0.324278
  18 C :   -0.537969
  19 C :   -0.524290
  20 H :    0.236313
  21 H :    0.233600
  22 H :    0.233346
  23 H :    0.265989
  24 H :    0.226896
  25 H :    0.228895
  26 H :    0.226067
  27 H :    0.231982
  28 H :    0.226563
  29 H :    0.228831
  30 H :    0.227354
  31 H :    0.220197
  32 H :    0.228921
  33 H :    0.235656
Sum of atomic charges:    0.0000000

--------------------------------
MULLIKEN REDUCED ORBITAL CHARGES
--------------------------------
  0 C s       :     3.155334  s :     3.155334
      pz      :     0.995892  p :     2.996451
      px      :     1.031306
      py      :     0.969253
      dz2     :     0.011680  d :     0.058982
      dxz     :     0.011622
      dyz     :     0.007858
      dx2y2   :     0.016321
      dxy     :     0.011502

  1 C s       :     3.197967  s :     3.197967
      pz      :     0.978933  p :     2.960790
      px      :     0.996026
      py      :     0.985831
      dz2     :     0.009104  d :     0.063263
      dxz     :     0.017127
      dyz     :     0.007640
      dx2y2   :     0.011547
      dxy     :     0.017845

  2 C s       :     3.188331  s :     3.188331
      pz      :     1.016180  p :     2.978300
      px      :     0.952863
      py      :     1.009257
      dz2     :     0.006947  d :     0.061388
      dxz     :     0.015462
      dyz     :     0.009790
      dx2y2   :     0.013647
      dxy     :     0.015542

  3 C s       :     3.117033  s :     3.117033
      pz      :     0.786284  p :     2.565897
      px      :     0.912489
      py      :     0.867125
      dz2     :     0.020078  d :     0.114616
      dxz     :     0.025232
      dyz     :     0.019665
      dx2y2   :     0.025651
      dxy     :     0.023990

  4 C s       :     3.047747  s :     3.047747
      pz      :     1.039994  p :     2.877003
      px      :     0.871337
      py      :     0.965671
      dz2     :     0.011571  d :     0.068128
      dxz     :     0.016229
      dyz     :     0.008151
      dx2y2   :     0.015957
      dxy     :     0.016221

  5 O s       :     3.791709  s :     3.791709
      pz      :     1.581132  p :     4.530286
      px      :     1.530880
      py      :     1.418274
      dz2     :     0.003288  d :     0.015276
      dxz     :     0.002501
      dyz     :     0.003956
      dx2y2   :     0.002477
      dxy     :     0.003054

  6 C s       :     3.090735  s :     3.090735
      pz      :     0.947189  p :     2.826428
      px      :     0.939053
      py      :     0.940187
      dz2     :     0.013265  d :     0.076230
      dxz     :     0.017892
      dyz     :     0.009495
      dx2y2   :     0.017831
      dxy     :     0.017748

  7 C s       :     3.193621  s :     3.193621
      pz      :     1.013481  p :     2.973084
      px      :     0.945015
      py      :     1.014589
      dz2     :     0.007727  d :     0.062082
      dxz     :     0.013722
      dyz     :     0.010839
      dx2y2   :     0.015853
      dxy     :     0.013940

  8 C s       :     3.201929  s :     3.201929
      pz      :     0.966633  p :     2.969200
      px      :     1.039255
      py      :     0.963312
      dz2     :     0.012770  d :     0.062000
      dxz     :     0.010836
      dyz     :     0.009148
      dx2y2   :     0.019033
      dxy     :     0.010214

  9 C s       :     3.065927  s :     3.065927
      pz      :     0.886014  p :     2.725378
      px      :     0.950344
      py      :     0.889020
      dz2     :     0.017243  d :     0.099811
      dxz     :     0.025056
      dyz     :     0.013816
      dx2y2   :     0.020069
      dxy     :     0.023627

 10 C s       :     3.071815  s :     3.071815
      pz      :     0.990762  p :     2.865790
      px      :     0.886122
      py      :     0.988906
      dz2     :     0.013624  d :     0.073984
      dxz     :     0.016388
      dyz     :     0.009945
      dx2y2   :     0.017713
      dxy     :     0.016314

 11 N s       :     3.614684  s :     3.614684
      pz      :     1.108324  p :     3.684603
      px      :     1.486727
      py      :     1.089551
      dz2     :     0.006549  d :     0.037169
      dxz     :     0.008769
      dyz     :     0.005833
      dx2y2   :     0.006925
      dxy     :     0.009092

 12 C s       :     3.134717  s :     3.134717
      pz      :     0.967269  p :     2.825510
      px      :     0.905124
      py      :     0.953116
      dz2     :     0.012689  d :     0.090368
      dxz     :     0.019439
      dyz     :     0.014241
      dx2y2   :     0.024197
      dxy     :     0.019802

 13 C s       :     3.231850  s :     3.231850
      pz      :     0.997625  p :     2.998372
      px      :     0.994874
      py      :     1.005873
      dz2     :     0.008512  d :     0.059512
      dxz     :     0.015566
      dyz     :     0.008039
      dx2y2   :     0.011621
      dxy     :     0.015774

 14 C s       :     3.157668  s :     3.157668
      pz      :     0.948246  p :     2.885530
      px      :     0.994873
      py      :     0.942411
      dz2     :     0.012870  d :     0.062339
      dxz     :     0.012017
      dyz     :     0.008558
      dx2y2   :     0.017848
      dxy     :     0.011046

 15 C s       :     2.903432  s :     2.903432
      pz      :     0.768086  p :     2.336069
      px      :     0.776966
      py      :     0.791016
      dz2     :     0.058104  d :     0.230951
      dxz     :     0.046853
      dyz     :     0.060586
      dx2y2   :     0.033114
      dxy     :     0.032295

 16 O s       :     3.826700  s :     3.826700
      pz      :     1.399107  p :     4.622071
      px      :     1.554333
      py      :     1.668631
      dz2     :     0.005790  d :     0.016012
      dxz     :     0.005416
      dyz     :     0.003094
      dx2y2   :     0.000965
      dxy     :     0.000748

 17 N s       :     3.464066  s :     3.464066
      pz      :     1.145396  p :     3.824585
      px      :     1.350411
      py      :     1.328778
      dz2     :     0.008133  d :     0.035627
      dxz     :     0.007992
      dyz     :     0.009130
      dx2y2   :     0.005423
      dxy     :     0.004949

 18 C s       :     3.325465  s :     3.325465
      pz      :     0.872883  p :     3.141821
      px      :     1.107738
      py      :     1.161200
      dz2     :     0.016475  d :     0.070683
      dxz     :     0.018214
      dyz     :     0.015067
      dx2y2   :     0.010344
      dxy     :     0.010581

 19 C s       :     3.320644  s :     3.320644
      pz      :     1.179053  p :     3.132603
      px      :     0.972206
      py      :     0.981344
      dz2     :     0.013628  d :     0.071043
      dxz     :     0.017039
      dyz     :     0.003897
      dx2y2   :     0.018291
      dxy     :     0.018188

 20 H s       :     0.763687  s :     0.763687

 21 H s       :     0.766400  s :     0.766400

 22 H s       :     0.766654  s :     0.766654

 23 H s       :     0.734011  s :     0.734011

 24 H s       :     0.773104  s :     0.773104

 25 H s       :     0.771105  s :     0.771105

 26 H s       :     0.773933  s :     0.773933

 27 H s       :     0.768018  s :     0.768018

 28 H s       :     0.773437  s :     0.773437

 29 H s       :     0.771169  s :     0.771169

 30 H s       :     0.772646  s :     0.772646

 31 H s       :     0.779803  s :     0.779803

 32 H s       :     0.771079  s :     0.771079

 33 H s       :     0.764344  s :     0.764344



                     *******************************
                     * LOEWDIN POPULATION ANALYSIS *
                     *******************************

----------------------
LOEWDIN ATOMIC CHARGES
----------------------
   0 C :   -0.117839
   1 C :   -0.104782
   2 C :   -0.104658
   3 C :   -0.006523
   4 C :   -0.038942
   5 O :    0.083558
   6 C :   -0.033027
   7 C :   -0.092578
   8 C :   -0.098659
   9 C :   -0.036867
  10 C :   -0.050364
  11 N :   -0.002418
  12 C :   -0.105164
  13 C :   -0.129105
  14 C :   -0.061819
  15 C :   -0.123089
  16 O :   -0.197515
  17 N :    0.044826
  18 C :   -0.249379
  19 C :   -0.242131
  20 H :    0.114281
  21 H :    0.114201
  22 H :    0.117480
  23 H :    0.118207
  24 H :    0.109527
  25 H :    0.114696
  26 H :    0.122459
  27 H :    0.121958
  28 H :    0.123459
  29 H :    0.124830
  30 H :    0.124173
  31 H :    0.107279
  32 H :    0.126245
  33 H :    0.127678

-------------------------------
LOEWDIN REDUCED ORBITAL CHARGES
-------------------------------
  0 C s       :     2.830789  s :     2.830789
      pz      :     1.043190  p :     3.156011
      px      :     1.072870
      py      :     1.039951
      dz2     :     0.023982  d :     0.131039
      dxz     :     0.026460
      dyz     :     0.021412
      dx2y2   :     0.031979
      dxy     :     0.027206

  1 C s       :     2.826896  s :     2.826896
      pz      :     1.022691  p :     3.140288
      px      :     1.097831
      py      :     1.019767
      dz2     :     0.019990  d :     0.137599
      dxz     :     0.035504
      dyz     :     0.016854
      dx2y2   :     0.028945
      dxy     :     0.036306

  2 C s       :     2.825911  s :     2.825911
      pz      :     1.024755  p :     3.144984
      px      :     1.095711
      py      :     1.024518
      dz2     :     0.014926  d :     0.133763
      dxz     :     0.034777
      dyz     :     0.016114
      dx2y2   :     0.032999
      dxy     :     0.034948

  3 C s       :     2.786925  s :     2.786925
      pz      :     0.940169  p :     2.967404
      px      :     1.082427
      py      :     0.944808
      dz2     :     0.042525  d :     0.252193
      dxz     :     0.055501
      dyz     :     0.047226
      dx2y2   :     0.056426
      dxy     :     0.050515

  4 C s       :     2.784160  s :     2.784160
      pz      :     1.023412  p :     3.094303
      px      :     1.047796
      py      :     1.023094
      dz2     :     0.025284  d :     0.160480
      dxz     :     0.037762
      dyz     :     0.020427
      dx2y2   :     0.039176
      dxy     :     0.037830

  5 O s       :     3.359452  s :     3.359452
      pz      :     1.575264  p :     4.531504
      px      :     1.534790
      py      :     1.421451
      dz2     :     0.005133  d :     0.025486
      dxz     :     0.003712
      dyz     :     0.006401
      dx2y2   :     0.003904
      dxy     :     0.006336

  6 C s       :     2.778465  s :     2.778465
      pz      :     1.006483  p :     3.080736
      px      :     1.066658
      py      :     1.007595
      dz2     :     0.028612  d :     0.173825
      dxz     :     0.040613
      dyz     :     0.023209
      dx2y2   :     0.041152
      dxy     :     0.040240

  7 C s       :     2.827492  s :     2.827492
      pz      :     1.023556  p :     3.130498
      px      :     1.079136
      py      :     1.027806
      dz2     :     0.015956  d :     0.134589
      dxz     :     0.031562
      dyz     :     0.018312
      dx2y2   :     0.036364
      dxy     :     0.032394

  8 C s       :     2.827107  s :     2.827107
      pz      :     1.025523  p :     3.136492
      px      :     1.082086
      py      :     1.028883
      dz2     :     0.025959  d :     0.135060
      dxz     :     0.024684
      dyz     :     0.022733
      dx2y2   :     0.037234
      dxy     :     0.024450

  9 C s       :     2.782649  s :     2.782649
      pz      :     0.984440  p :     3.027228
      px      :     1.061768
      py      :     0.981020
      dz2     :     0.035544  d :     0.226990
      dxz     :     0.058054
      dyz     :     0.033712
      dx2y2   :     0.045185
      dxy     :     0.054495

 10 C s       :     2.783279  s :     2.783279
      pz      :     1.009598  p :     3.095502
      px      :     1.076140
      py      :     1.009763
      dz2     :     0.028861  d :     0.171583
      dxz     :     0.038831
      dyz     :     0.023531
      dx2y2   :     0.041728
      dxy     :     0.038631

 11 N s       :     3.134209  s :     3.134209
      pz      :     1.145902  p :     3.799309
      px      :     1.520120
      py      :     1.133286
      dz2     :     0.012157  d :     0.068901
      dxz     :     0.014949
      dyz     :     0.014057
      dx2y2   :     0.012083
      dxy     :     0.015655

 12 C s       :     2.836955  s :     2.836955
      pz      :     0.994228  p :     3.069708
      px      :     1.086129
      py      :     0.989351
      dz2     :     0.026399  d :     0.198501
      dxz     :     0.044182
      dyz     :     0.025093
      dx2y2   :     0.056201
      dxy     :     0.046628

[...]
 49:    994.50   0.005499   27.79  0.001726  (-0.022824 -0.001668  0.034667)
 50:   1000.81   0.000198    1.00  0.000062  ( 0.000835 -0.005351  0.005706)
 51:   1029.09   0.008681   43.87  0.002633  ( 0.043145 -0.027713 -0.001749)
 52:   1046.69   0.008123   41.05  0.002422  ( 0.024460 -0.042690 -0.001087)
 53:   1082.42   0.003711   18.75  0.001070  ( 0.008304 -0.031595  0.001616)
 54:   1084.30   0.000985    4.98  0.000283  ( 0.000614  0.008433 -0.014559)
 55:   1107.82   0.000606    3.06  0.000171  (-0.012664 -0.002919 -0.001393)
 56:   1133.92   0.000857    4.33  0.000236  ( 0.007317 -0.002285 -0.013311)
 57:   1148.10   0.007644   38.63  0.002078  (-0.007160 -0.040800 -0.019020)
 58:   1160.79   0.187820  949.16  0.050493  (-0.102839  0.170865  0.103548)
 59:   1172.47   0.001992   10.07  0.000530  (-0.003593  0.016950  0.015169)
 60:   1180.66   0.017970   90.81  0.004750  (-0.037244  0.055073  0.018155)
 61:   1188.05   0.002204   11.14  0.000579  ( 0.011693 -0.020816 -0.002966)
 62:   1220.80   0.004214   21.30  0.001077  (-0.008615  0.027528  0.015659)
 63:   1225.91   0.008596   43.44  0.002188  (-0.022288  0.036831  0.018302)
 64:   1258.00   0.027999  141.50  0.006946  (-0.050546  0.061245  0.025293)
 65:   1272.18   0.004583   23.16  0.001124  (-0.012657  0.029523  0.009616)
 66:   1285.78   0.002881   14.56  0.000699  ( 0.004114  0.021874 -0.014274)
 67:   1324.45   0.003058   15.45  0.000720  ( 0.018615 -0.015189 -0.011968)
 68:   1342.66   0.006253   31.60  0.001453  (-0.021587  0.024945  0.019107)
 69:   1355.91   0.002017   10.19  0.000464  ( 0.015599 -0.011041 -0.009951)
 70:   1412.09   0.024147  122.03  0.005336  ( 0.001441  0.060877  0.040352)
 71:   1421.14   0.044376  224.26  0.009744  (-0.056094  0.071388  0.038750)
 72:   1446.02   0.003842   19.41  0.000829  ( 0.004872  0.006225 -0.027688)
 73:   1452.68   0.002641   13.35  0.000567  (-0.004679 -0.020347 -0.011468)
 74:   1457.05   0.006156   31.11  0.001319  ( 0.001327  0.029437  0.021219)
 75:   1470.25   0.006895   34.84  0.001463  ( 0.019850 -0.030144  0.012681)
 76:   1477.71   0.003607   18.23  0.000762  ( 0.020687  0.010000 -0.015293)
 77:   1493.10   0.000424    2.14  0.000089  ( 0.002210 -0.002509 -0.008803)
 78:   1500.56   0.006553   33.12  0.001363  (-0.029472 -0.005046 -0.021652)
 79:   1504.64   0.003220   16.27  0.000668  ( 0.005108  0.022182 -0.012235)
 80:   1531.59   0.001634    8.26  0.000333  ( 0.014293 -0.010002  0.005341)
 81:   1536.53   0.014102   71.26  0.002864  ( 0.014227 -0.051090 -0.007169)
 82:   1548.48   0.010421   52.66  0.002100  (-0.025066  0.033207  0.019211)
 83:   1601.06   0.007829   39.57  0.001526  ( 0.037497 -0.004321 -0.010062)
 84:   1633.20   0.010964   55.41  0.002095  (-0.008433 -0.034368 -0.029029)
 85:   1647.07   0.001198    6.05  0.000227  (-0.007532 -0.009118 -0.009333)
 86:   1661.56   0.004338   21.92  0.000815  ( 0.027495  0.007667 -0.000260)
 87:   1742.84   0.176536  892.14  0.031610  ( 0.038110  0.006823 -0.173524)
 88:   3024.23   0.009247   46.73  0.000954  (-0.010160 -0.020501  0.020753)
 89:   3029.56   0.025028  126.48  0.002578  ( 0.035079 -0.023454 -0.028238)
 90:   3076.48   0.015817   79.93  0.001604  ( 0.031995  0.019004  0.014819)
 91:   3084.35   0.005302   26.80  0.000536  ( 0.013865  0.011947  0.014195)
 92:   3150.78   0.009588   48.45  0.000950  (-0.004259  0.021996  0.021158)
 93:   3169.84   0.000338    1.71  0.000033  ( 0.005358  0.001984  0.000808)
 94:   3174.16   0.001552    7.84  0.000153  (-0.001199 -0.004419  0.011471)
 95:   3176.35   0.001098    5.55  0.000108  (-0.008468  0.003330  0.005011)
 96:   3176.93   0.001771    8.95  0.000174  ( 0.012442 -0.002019 -0.003889)
 97:   3184.76   0.002553   12.90  0.000250  (-0.009404  0.012695  0.000753)
 98:   3186.58   0.005058   25.56  0.000495  ( 0.019044 -0.006413 -0.009565)
 99:   3189.54   0.009368   47.34  0.000917  ( 0.007764 -0.020920 -0.020462)
100:   3201.03   0.010424   52.68  0.001016  ( 0.022368  0.018674  0.012931)
101:   3201.35   0.000885    4.47  0.000086  ( 0.008198  0.004092  0.001513)

* The epsilon (eps) is given for a Dirac delta lineshape.
** The dipole moment derivative (T) already includes vibrational overlap.

The first frequency considered to be a vibration is 6
The total number of vibrations considered is 96


--------------------------
THERMOCHEMISTRY AT 298.15K
--------------------------

Temperature         ...   298.15 K
Pressure            ...     1.00 atm
Total Mass          ...   266.30 AMU
Quasi RRHO          ...     True
Cut-Off Frequency   ...     1.00 cm^-1

Throughout the following assumptions are being made:
  (1) The electronic state is orbitally nondegenerate
  (2) There are no thermally accessible electronically excited states
  (3) Hindered rotations indicated by low frequency modes are not
      treated as such but are treated as vibrations and this may
      cause some error
  (4) All equations used are the standard statistical mechanics
      equations for an ideal gas
  (5) All vibrations are strictly harmonic

freq.      30.21  E(vib)   ...       0.55 
freq.      34.17  E(vib)   ...       0.54 
freq.      48.15  E(vib)   ...       0.53 
freq.      62.68  E(vib)   ...       0.51 
freq.      90.03  E(vib)   ...       0.47 
freq.      99.09  E(vib)   ...       0.46 
freq.     113.44  E(vib)   ...       0.45 
freq.     129.60  E(vib)   ...       0.43 
freq.     203.03  E(vib)   ...       0.35 
freq.     216.34  E(vib)   ...       0.34 
freq.     229.81  E(vib)   ...       0.32 
freq.     233.46  E(vib)   ...       0.32 
freq.     244.57  E(vib)   ...       0.31 
freq.     296.44  E(vib)   ...       0.27 
freq.     365.35  E(vib)   ...       0.22 
freq.     376.78  E(vib)   ...       0.21 
freq.     409.46  E(vib)   ...       0.19 
freq.     421.01  E(vib)   ...       0.18 
freq.     463.20  E(vib)   ...       0.16 
freq.     488.83  E(vib)   ...       0.15 
freq.     509.69  E(vib)   ...       0.14 
freq.     519.36  E(vib)   ...       0.13 
freq.     524.88  E(vib)   ...       0.13 
freq.     561.35  E(vib)   ...       0.11 
freq.     582.10  E(vib)   ...       0.11 
freq.     607.09  E(vib)   ...       0.10 
freq.     623.20  E(vib)   ...       0.09 
freq.     658.94  E(vib)   ...       0.08 
freq.     701.57  E(vib)   ...       0.07 
freq.     729.83  E(vib)   ...       0.06 
freq.     735.95  E(vib)   ...       0.06 
freq.     739.45  E(vib)   ...       0.06 
freq.     773.19  E(vib)   ...       0.05 
freq.     800.86  E(vib)   ...       0.05 
freq.     823.82  E(vib)   ...       0.05 
freq.     833.42  E(vib)   ...       0.04 
freq.     853.96  E(vib)   ...       0.04 
freq.     868.30  E(vib)   ...       0.04 
freq.     870.61  E(vib)   ...       0.04 
freq.     922.14  E(vib)   ...       0.03 
freq.     965.45  E(vib)   ...       0.03 
freq.     979.53  E(vib)   ...       0.03 
freq.     987.99  E(vib)   ...       0.02 
freq.     994.50  E(vib)   ...       0.02 
freq.    1000.81  E(vib)   ...       0.02 
freq.    1029.09  E(vib)   ...       0.02 
freq.    1046.69  E(vib)   ...       0.02 
freq.    1082.42  E(vib)   ...       0.02 
freq.    1084.30  E(vib)   ...       0.02 
freq.    1107.82  E(vib)   ...       0.02 
freq.    1133.92  E(vib)   ...       0.01 
freq.    1148.10  E(vib)   ...       0.01 
freq.    1160.79  E(vib)   ...       0.01 
freq.    1172.47  E(vib)   ...       0.01 
freq.    1180.66  E(vib)   ...       0.01 
freq.    1188.05  E(vib)   ...       0.01 
freq.    1220.80  E(vib)   ...       0.01 
freq.    1225.91  E(vib)   ...       0.01 
freq.    1258.00  E(vib)   ...       0.01 
freq.    1272.18  E(vib)   ...       0.01 
freq.    1285.78  E(vib)   ...       0.01 
freq.    1324.45  E(vib)   ...       0.01 
freq.    1342.66  E(vib)   ...       0.01 
freq.    1355.91  E(vib)   ...       0.01 
freq.    1412.09  E(vib)   ...       0.00 
freq.    1421.14  E(vib)   ...       0.00 
freq.    1446.02  E(vib)   ...       0.00 
freq.    1452.68  E(vib)   ...       0.00 
freq.    1457.05  E(vib)   ...       0.00 
freq.    1470.25  E(vib)   ...       0.00 
freq.    1477.71  E(vib)   ...       0.00 
freq.    1493.10  E(vib)   ...       0.00 
freq.    1500.56  E(vib)   ...       0.00 
freq.    1504.64  E(vib)   ...       0.00 
freq.    1531.59  E(vib)   ...       0.00 
freq.    1536.53  E(vib)   ...       0.00 
freq.    1548.48  E(vib)   ...       0.00 
freq.    1601.06  E(vib)   ...       0.00 
freq.    1633.20  E(vib)   ...       0.00 
freq.    1647.07  E(vib)   ...       0.00 
freq.    1661.56  E(vib)   ...       0.00 
freq.    1742.84  E(vib)   ...       0.00 
freq.    3024.23  E(vib)   ...       0.00 
freq.    3029.56  E(vib)   ...       0.00 
freq.    3076.48  E(vib)   ...       0.00 
freq.    3084.35  E(vib)   ...       0.00 
freq.    3150.78  E(vib)   ...       0.00 
freq.    3169.84  E(vib)   ...       0.00 
freq.    3174.16  E(vib)   ...       0.00 
freq.    3176.35  E(vib)   ...       0.00 
freq.    3176.93  E(vib)   ...       0.00 
freq.    3184.76  E(vib)   ...       0.00 
freq.    3186.58  E(vib)   ...       0.00 
freq.    3189.54  E(vib)   ...       0.00 
freq.    3201.03  E(vib)   ...       0.00 
freq.    3201.35  E(vib)   ...       0.00 

------------
INNER ENERGY
------------

The inner energy is: U= E(el) + E(ZPE) + E(vib) + E(rot) + E(trans)
    E(el)   - is the total energy from the electronic structure calculation
              = E(kin-el) + E(nuc-el) + E(el-el) + E(nuc-nuc)
    E(ZPE)  - the the zero temperature vibrational energy from the frequency calculation
    E(vib)  - the the finite temperature correction to E(ZPE) due to population
              of excited vibrational states
    E(rot)  - is the rotational thermal energy
    E(trans)- is the translational thermal energy

Summary of contributions to the inner energy U:
Electronic energy                ...   -878.32945858 Eh
Zero point energy                ...      0.26861220 Eh     168.56 kcal/mol
Thermal vibrational correction   ...      0.01406389 Eh       8.83 kcal/mol
Thermal rotational correction    ...      0.00141627 Eh       0.89 kcal/mol
Thermal translational correction ...      0.00141627 Eh       0.89 kcal/mol
-----------------------------------------------------------------------
Total thermal energy                   -878.04394995 Eh


Summary of corrections to the electronic energy:
(perhaps to be used in another calculation)
Total thermal correction                  0.01689644 Eh      10.60 kcal/mol
Non-thermal (ZPE) correction              0.26861220 Eh     168.56 kcal/mol
-----------------------------------------------------------------------
Total correction                          0.28550863 Eh     179.16 kcal/mol


--------
ENTHALPY
--------

The enthalpy is H = U + kB*T
                kB is Boltzmann's constant
Total thermal energy              ...   -878.04394995 Eh 
Thermal Enthalpy correction       ...      0.00094421 Eh       0.59 kcal/mol
-----------------------------------------------------------------------
Total Enthalpy                    ...   -878.04300574 Eh


Note: Only C1 symmetry has been detected, increase convergence thresholds 
      if your molecule has a higher symmetry. Symmetry factor of 1.0 is   
      used for the rotational entropy correction. 
 

Note: Rotational entropy computed according to Herzberg 
Infrared and Raman Spectra, Chapter V,1, Van Nostrand Reinhold, 1945 
Point Group:  C1, Symmetry Number:   1  
Rotational constants in cm-1:     0.016148     0.010990     0.007130 

Vibrational entropy computed according to the QRRHO of S. Grimme
Chem.Eur.J. 2012 18 9955 using a reference frequency of 100.0 cm-1


-------
ENTROPY
-------

The entropy contributions are T*S = T*(S(el)+S(vib)+S(rot)+S(trans))
     S(el)   - electronic entropy
     S(vib)  - vibrational entropy
     S(rot)  - rotational entropy
     S(trans)- translational entropy
The entropies will be listed as multiplied by the temperature to get
units of energy

Electronic entropy                ...      0.00000000 Eh      0.00 kcal/mol
Vibrational entropy               ...      0.02472769 Eh     15.52 kcal/mol
Rotational entropy                ...      0.01592186 Eh      9.99 kcal/mol
Translational entropy             ...      0.02025841 Eh     12.71 kcal/mol
-----------------------------------------------------------------------
Final entropy term                ...      0.06090796 Eh     38.22 kcal/mol

In case the symmetry of your molecule has not been determined correctly
or in case you have a reason to use a different symmetry number we print 
out the resulting rotational entropy values for sn=1,12:

 non-linear molecules -----------------------------------
|  sn= 1 | S(rot)=       0.01592186 Eh      9.99 kcal/mol|
|  sn= 2 | S(rot)=       0.01526740 Eh      9.58 kcal/mol|
|  sn= 3 | S(rot)=       0.01488457 Eh      9.34 kcal/mol|
|  sn= 4 | S(rot)=       0.01461294 Eh      9.17 kcal/mol|
|  sn= 5 | S(rot)=       0.01440226 Eh      9.04 kcal/mol|
|  sn= 6 | S(rot)=       0.01423011 Eh      8.93 kcal/mol|
|  sn= 7 | S(rot)=       0.01408457 Eh      8.84 kcal/mol|
|  sn= 8 | S(rot)=       0.01395849 Eh      8.76 kcal/mol|
|  sn= 9 | S(rot)=       0.01384728 Eh      8.69 kcal/mol|
|  sn=10 | S(rot)=       0.01374780 Eh      8.63 kcal/mol|
|  sn=11 | S(rot)=       0.01365781 Eh      8.57 kcal/mol|
|  sn=12 | S(rot)=       0.01357566 Eh      8.52 kcal/mol|
 linear molecules ---------------------------------------
|  Dinfh | S(rot)=       0.00999328 Eh      6.27 kcal/mol|
|  Cinfv | S(rot)=       0.01064773 Eh      6.68 kcal/mol|
 --------------------------------------------------------


-------------------
GIBBS FREE ENERGY
-------------------

The Gibbs free energy is G = H - T*S

Total enthalpy                    ...   -878.04300574 Eh 
Total entropy correction          ...     -0.06090796 Eh    -38.22 kcal/mol
-----------------------------------------------------------------------
Final Gibbs free energy         ...   -878.10391369 Eh

For completeness - the Gibbs free energy minus the electronic energy
G-E(el)                           ...      0.22554489 Eh    141.53 kcal/mol


Maximum memory used throughout the entire PROP-calculation: 231.8 MB

--------------------------------
SUGGESTED CITATIONS FOR THIS RUN
--------------------------------

Below you find a list of papers that are relevant to this ORCA run
We neither can nor want to force you to cite these papers, but we appreciate if you do
You receive ORCA, which is the product of decades of hard work by many enthusiastic individuals, for free
The only thing we kindly ask in return is that you cite our papers,
We deeply appreciate it, if you show your appreciation for ORCA by not just citing the generic ORCA reference.

Please note that relegating all ORCA citations to the supporting information does *not* help us.
SI sections are not indexed - citations you put there will not count into any citation statistics
But we need these citations in order to attract the funding resources that allow us to do what we are doing

Therefore, if you are a happy ORCA user, please consider citing a few of the papers listed below in the main body of your paper

In addition to the list printed below, the program has created the file 6higherenergy.bibtex that contains the list in bibtex format
You can import this file easily into all common literature databanks and citation aid programs


List of essential papers. We consider these as the minimum necessary citations

  1. Neese,F.
     Software update: the ORCA program system, version 5.0
     WIRES Comput. Molec. Sci., 2022 12(1)e1606
     doi.org/10.1002/wcms.1606

List of papers to cite with high priority. The work reported in these papers was absolutely
necessary for this run to complete.
Our perspective: the developers of density functionals and basis sets usually get cited in chemistry papers
Good! But without the algorithms to do something with them, the functionals or basis sets would not do anything.
Hence, in our opinion, the algorithm design and method developments papers are equally worthy of getting cited

  1. Neese,F.
     An improvement of the resolution of the identity approximation for the formation of the Coulomb matrix
     J. Comp. Chem., 2003 24(14)1740-1747
     doi.org/10.1002/jcc.10318
  2. Neese,F.; Wennmohs,F.; Hansen,A.; Becker,U.
     Efficient, approximate and parallel Hartree-Fock and hybrid DFT calculations. A 'chain-of-spheres' algorithm for the Hartree-Fock exchange
     Chem. Phys., 2009 356(1-3)98-109
     doi.org/10.1016/j.chemphys.2008.10.036
  3. Bykov,D.; Petrenko,T.; Izsak,R.; Kossmann,S.; Becker,U.; Valeev,E.; Neese,F.
     Efficient implementation of the analytic second derivatives of Hartree-Fock and hybrid DFT energies: a detailed analysis of different approximations
     Molec. Phys., 2015 113 1961-1977
     doi.org/10.1080/00268976.2015.1025114
  4. Garcia-Rates,M.; Neese,F.
     Efficient implementation of the analytical second derivatives of hartree-fock and hybrid DFT energies within the framework of the conductor-like polarizable continuum model
     J. Comput. Chem., 2019 40 1816-1828
     doi.org/10.1002/jcc.25833
  5. Garcia-Rates,M.; Neese,F.
     Effect of the Solute Cavity on the Solvation Energy and its Derivatives within the Framework of the Gaussian Charge Scheme
     J. Comput. Chem., 2020 41 922-939
     doi.org/10.1002/jcc.26139
  6. Helmich-Paris,B.; de Souza,B.; Neese,F.; Izsák,R.
     An improved chain of spheres for exchange algorithm
     J. Chem. Phys., 2021 155 104109
     doi.org/doi: 10.1063/5.0058766.
  7. Neese,F.
     The SHARK Integral Generation and Digestion System
     J. Comp. Chem., 2022  1-16
     doi.org/10.1002/jcc.26942

List of suggested additional citations. These are papers that are important in the 'surrounding' of 
of this run, or papers that preceded the highly important papers. If you like your results we are grateful for a citation.

  1. Izsak,R.; Neese,F.
     An overlap fitted chain of spheres exchange method
     J. Chem. Phys., 2011 135 144105
     doi.org/10.1063/1.3646921
  2. Izsak,R.; Hansen,A.; Neese,F.
     The resolution of identity and chain of spheres approximations for the LPNO-CCSD singles Fock term
     Molec. Phys., 2012 110 2413-2417
     doi.org/10.1080/00268976.2012.687466
  3. Neese,F.
     The ORCA program system
     WIRES Comput. Molec. Sci., 2012 2(1)73-78
     doi.org/10.1002/wcms.81
  4. Izsak,R.; Neese,F.; Klopper,W.
     Robust fitting techniques in the chain of spheres approximation to the Fock exchange: The role of the complementary space
     J. Chem. Phys., 2013 139 
     doi.org/10.1063/1.4819264
  5. Neese,F.
     Software update: the ORCA program system, version 4.0
     WIRES Comput. Molec. Sci., 2018 8(1)1-6
     doi.org/10.1002/wcms.1327
  6. Neese,F.; Wennmohs,F.; Becker,U.; Riplinger,C.
     The ORCA quantum chemistry program package
     J. Chem. Phys., 2020 152 Art. No. L224108
     doi.org/10.1063/5.0004608

List of optional additional citations

  1. Neese,F.
     Approximate second-order SCF convergence for spin unrestricted wavefunctions
     Chem. Phys. Lett., 2000 325(1-3)93-98
     doi.org/10.1016/s0009-2614(00)00662-x

Timings for individual modules:

Sum of individual times          ...     7682.753 sec (= 128.046 min)
Startup calculation              ...       77.428 sec (=   1.290 min)   1.0 %
SCF iterations                   ...     2489.338 sec (=  41.489 min)  32.4 %
Property integrals               ...     1062.396 sec (=  17.707 min)  13.8 %
SCF Response                     ...     1423.896 sec (=  23.732 min)  18.5 %
Property calculations            ...     1368.283 sec (=  22.805 min)  17.8 %
SCF Gradient evaluation          ...     1260.793 sec (=  21.013 min)  16.4 %
Geometry relaxation              ...        0.620 sec (=   0.010 min)   0.0 %
                             ****ORCA TERMINATED NORMALLY****
TOTAL RUN TIME: 0 days 2 hours 8 minutes 8 seconds 468 msec
