34
Coordinates from ORCA-job 6higherenergy E -878.321284887841
  C      -3.299212     -0.451627     -0.511459
  C      -2.887495     -1.381967     -1.463919
  C      -1.552357     -1.557960     -1.716233
  C      -2.371792      0.301421      0.175541
  C      -0.986656      0.138444     -0.052288
  O      -2.778973      1.197444      1.146041
  C      -0.586488     -0.811872     -1.022357
  C       0.798277     -1.001823     -1.301739
  C       1.750108     -0.284747     -0.664150
  C       0.027627      0.891328      0.642790
  C       1.391764      0.677484      0.319361
  N      -0.331813      1.778081      1.583071
  C       0.593416      2.470152      2.201801
  C       1.961923      2.344291      1.948771
  C       2.358684      1.434372      1.000513
  C      -3.736596      2.116050      0.864190
  O      -4.280569      2.212716     -0.228072
  N      -3.997251      2.901869      1.912001
  C      -3.309841      2.793017      3.180760
  C      -5.035654      3.904550      1.829290
  H      -4.607614      4.897224      1.971641
  H      -5.785366      3.720405      2.599251
  H      -5.499244      3.848713      0.846687
  H      -2.364334      2.277231      3.037792
  H      -3.922391      2.245715      3.899476
  H      -3.125374      3.796917      3.559392
  H      -1.223801     -2.273186     -2.454145
  H      -4.349308     -0.304573     -0.311453
  H      -3.629893     -1.957675     -1.993271
  H       1.064320     -1.736353     -2.046241
  H       2.798334     -0.424507     -0.882174
  H       0.228303      3.166110      2.945548
  H       2.674383      2.944123      2.491326
  H       3.403034      1.286475      0.766635
34
Coordinates from ORCA-job 6higherenergy E -878.325644710359
  C      -3.301449     -0.431214     -0.496636
  C      -2.892547     -1.388237     -1.429772
  C      -1.554183     -1.573412     -1.677698
  C      -2.373322      0.338982      0.180344
  C      -0.969101      0.173992     -0.034703
  O      -2.822756      1.223257      1.145379
  C      -0.582382     -0.813298     -0.995820
  C       0.801588     -1.037572     -1.287082
  C       1.778594     -0.327112     -0.677577
  C       0.092193      0.931532      0.635732
  C       1.453971      0.669707      0.291152
  N      -0.204645      1.866892      1.567897
  C       0.767784      2.546248      2.150533
  C       2.128400      2.363660      1.868031
  C       2.465400      1.413843      0.932358
  C      -3.734282      2.194564      0.837081
  O      -4.161252      2.384978     -0.294448
  N      -4.083997      2.908254      1.927199
  C      -3.535015      2.678158      3.261217
  C      -5.101952      3.943598      1.819369
  H      -4.679462      4.916437      2.085918
  H      -5.932802      3.721170      2.495139
  H      -5.468720      3.980265      0.797836
  H      -2.590866      2.148647      3.186107
  H      -4.233195      2.097892      3.874439
  H      -3.367299      3.644169      3.741960
  H      -1.225370     -2.311995     -2.401415
  H      -4.353572     -0.285557     -0.294506
  H      -3.639712     -1.979460     -1.947773
  H       1.046690     -1.797919     -2.021579
  H       2.825140     -0.498998     -0.909220
  H       0.452518      3.280050      2.889742
  H       2.880810      2.953451      2.378982
  H       3.502939      1.222870      0.676195
34
Coordinates from ORCA-job 6higherenergy E -878.326437044145
  C      -3.306329     -0.456083     -0.480565
  C      -2.898247     -1.420378     -1.410461
  C      -1.556826     -1.603599     -1.660269
  C      -2.376177      0.319803      0.188032
  C      -0.975683      0.168865     -0.036568
  O      -2.823133      1.195923      1.161786
  C      -0.586036     -0.829246     -0.988289
  C       0.801663     -1.050737     -1.279876
  C       1.776498     -0.326841     -0.678733
  C       0.080085      0.947067      0.615935
  C       1.443517      0.685654      0.275969
  N      -0.230056      1.904755      1.523420
  C       0.740481      2.602461      2.093790
  C       2.105047      2.417815      1.819627
  C       2.449675      1.449121      0.904016
  C      -3.661439      2.231943      0.838754
  O      -3.981920      2.501496     -0.308777
  N      -4.053681      2.905333      1.943987
  C      -3.634003      2.564428      3.304075
  C      -5.006238      4.002570      1.817564
  H      -4.559144      4.934292      2.176527
  H      -5.900788      3.792100      2.411535
  H      -5.287888      4.119219      0.775603
  H      -2.722373      1.977322      3.278982
  H      -4.416149      2.001938      3.825665
  H      -3.446167      3.488476      3.855444
  H      -1.225662     -2.349509     -2.376169
  H      -4.358543     -0.316319     -0.267649
  H      -3.644943     -2.020387     -1.920609
  H       1.051009     -1.819559     -2.005080
  H       2.824187     -0.497581     -0.909186
  H       0.424302      3.354717      2.813977
  H       2.853787      3.023178      2.318924
  H       3.489327      1.259604      0.652997
34
Coordinates from ORCA-job 6higherenergy E -878.327439663874
  C      -3.310837     -0.499561     -0.428713
  C      -2.909759     -1.459917     -1.368922
  C      -1.565962     -1.636270     -1.629640
  C      -2.375033      0.274344      0.231803
  C      -0.983098      0.158313     -0.025792
  O      -2.827955      1.118313      1.230449
  C      -0.594389     -0.846676     -0.972865
  C       0.795504     -1.060469     -1.274889
  C       1.768926     -0.319835     -0.688433
  C       0.065770      0.973730      0.585509
  C       1.428354      0.714008      0.245782
  N      -0.261385      1.971086      1.445368
  C       0.707287      2.699557      1.985407
  C       2.075477      2.509237      1.723187
  C       2.428565      1.508569      0.844140
  C      -3.506402      2.265101      0.885130
  O      -3.614603      2.640846     -0.266899
  N      -3.997904      2.886754      1.984506
  C      -3.866236      2.381379      3.351978
  C      -4.808067      4.089838      1.816018
  H      -4.347647      4.933434      2.338950
  H      -5.807956      3.931977      2.231795
  H      -4.895800      4.328057      0.760594
  H      -3.043607      1.679664      3.423859
  H      -4.788911      1.892172      3.681222
  H      -3.668001      3.222772      4.019754
  H      -1.234758     -2.384537     -2.342551
  H      -4.361388     -0.371379     -0.189210
  H      -3.656795     -2.065019     -1.872167
  H       1.047582     -1.836884     -1.990825
  H       2.815880     -0.487605     -0.923069
  H       0.392615      3.485712      2.667901
  H       2.819122      3.140005      2.197636
  H       3.469561      1.321125      0.597367
34
Coordinates from ORCA-job 6higherenergy E -878.328113408884
  C      -3.323453     -0.582935     -0.401666
  C      -2.910363     -1.528469     -1.352089
  C      -1.563631     -1.675119     -1.621220
  C      -2.398214      0.206125      0.253279
  C      -1.011667      0.133940     -0.026119
  O      -2.871017      1.016229      1.273553
  C      -0.605594     -0.863726     -0.971965
  C       0.788617     -1.048837     -1.274580
  C       1.745768     -0.285174     -0.689827
  C       0.014470      0.989498      0.561728
  C       1.381089      0.753717      0.230511
  N      -0.345905      2.004879      1.386459
  C       0.603623      2.768691      1.910898
  C       1.977699      2.597652      1.666946
  C       2.359767      1.583832      0.815338
  C      -3.385862      2.250423      0.935150
  O      -3.324789      2.689369     -0.195674
  N      -3.913009      2.867727      2.019347
  C      -4.007339      2.272197      3.350232
  C      -4.554636      4.167698      1.847382
  H      -4.068847      4.917435      2.478743
  H      -5.608971      4.110350      2.135236
  H      -4.487256      4.476378      0.808739
  H      -3.301340      1.456824      3.461226
  H      -5.018964      1.900903      3.543914
  H      -3.776103      3.036999      4.095047
  H      -1.220078     -2.417019     -2.334250
  H      -4.372986     -0.480007     -0.144312
  H      -3.646290     -2.147008     -1.854189
  H       1.058175     -1.823272     -1.985579
  H       2.795673     -0.434744     -0.920984
  H       0.270395      3.571571      2.563827
  H       2.703181      3.256152      2.130632
  H       3.406004      1.415561      0.578646
34
Coordinates from ORCA-job 6higherenergy E -878.328522679097
  C      -3.339583     -0.688615     -0.386420
  C      -2.903592     -1.613925     -1.345247
  C      -1.556407     -1.710495     -1.629029
  C      -2.436806      0.133080      0.257475
  C      -1.052883      0.108076     -0.036512
  O      -2.941986      0.921121      1.284988
  C      -0.620613     -0.870358     -0.987183
  C       0.776998     -1.010362     -1.290952
  C       1.710325     -0.223803     -0.699097
  C      -0.055612      0.994869      0.549315
  C       1.316373      0.799372      0.224378
  N      -0.451867      1.998063      1.370951
  C       0.470122      2.789399      1.898509
  C       1.848918      2.658062      1.663744
  C       2.266945      1.657424      0.814469
  C      -3.296156      2.216428      0.963621
  O      -3.153161      2.665109     -0.156329
  N      -3.810182      2.859772      2.035207
  C      -4.045652      2.243942      3.334831
  C      -4.309489      4.219536      1.867808
  H      -3.796308      4.898540      2.554496
  H      -5.381566      4.260031      2.084220
  H      -4.141077      4.547720      0.846509
  H      -3.447557      1.346243      3.453329
  H      -5.103124      1.989472      3.461627
  H      -3.768071      2.953759      4.117409
  H      -1.194479     -2.439198     -2.345960
  H      -4.387851     -0.618466     -0.116800
  H      -3.621051     -2.254255     -1.845397
  H       1.070338     -1.772007     -2.005523
  H       2.764182     -0.344214     -0.926761
  H       0.109444      3.585193      2.545235
  H       2.550753      3.336901      2.133220
  H       3.318825      1.521425      0.584249
34
Coordinates from ORCA-job 6higherenergy E -878.328988231601
  C      -3.345688     -0.748547     -0.391985
  C      -2.889375     -1.653759     -1.356919
  C      -1.547275     -1.703579     -1.658335
  C      -2.466618      0.105177      0.242001
  C      -1.077985      0.100481     -0.048979
  O      -3.004094      0.897288      1.255162
  C      -0.628598     -0.849776     -1.015547
  C       0.767429     -0.953011     -1.323506
  C       1.686003     -0.166484     -0.712899
  C      -0.092939      0.976140      0.572894
  C       1.281241      0.815250      0.243762
  N      -0.497288      1.926401      1.448017
  C       0.408329      2.706778      2.009516
  C       1.785565      2.614039      1.763043
  C       2.218744      1.661791      0.869458
  C      -3.377198      2.179260      0.911296
  O      -3.369505      2.573991     -0.241513
  N      -3.777739      2.880149      1.989186
  C      -3.861749      2.334445      3.333791
  C      -4.301986      4.225638      1.808824
  H      -3.727271      4.936811      2.407842
  H      -5.348541      4.271410      2.125295
  H      -4.233380      4.501334      0.760468
  H      -3.247660      1.442958      3.423948
  H      -4.897629      2.084507      3.587390
  H      -3.502786      3.083222      4.043496
  H      -1.173448     -2.413927     -2.387023
  H      -4.393200     -0.700862     -0.123319
  H      -3.591567     -2.309787     -1.857021
  H       1.073608     -1.690754     -2.056662
  H       2.741617     -0.263134     -0.941664
  H       0.030921      3.460884      2.695711
  H       2.476049      3.281110      2.263994
  H       3.272166      1.552395      0.634661
34
Coordinates from ORCA-job 6higherenergy E -878.329285334506
  C      -3.348716     -0.751660     -0.394906
  C      -2.889341     -1.664616     -1.352867
  C      -1.545504     -1.716641     -1.649822
  C      -2.470915      0.101728      0.243007
  C      -1.079050      0.097359     -0.042735
  O      -3.016544      0.894396      1.249473
  C      -0.628099     -0.858209     -1.007268
  C       0.768525     -0.959658     -1.320365
  C       1.688256     -0.166558     -0.718732
  C      -0.090676      0.976958      0.574388
  C       1.284301      0.819370      0.236118
  N      -0.490033      1.933891      1.446674
  C       0.419094      2.719114      2.000810
  C       1.796426      2.626601      1.746058
  C       2.224661      1.670364      0.853256
  C      -3.366692      2.185186      0.916090
  O      -3.304212      2.602075     -0.227341
  N      -3.784556      2.878527      1.996197
  C      -3.905492      2.317818      3.336213
  C      -4.287092      4.235085      1.821338
  H      -3.720153      4.929519      2.447522
  H      -5.341570      4.290531      2.109565
  H      -4.186028      4.526875      0.780390
  H      -3.305705      1.418986      3.430517
  H      -4.949632      2.078323      3.565370
  H      -3.553369      3.053627      4.062938
  H      -1.169925     -2.428016     -2.377773
  H      -4.398591     -0.703274     -0.129635
  H      -3.590845     -2.325078     -1.850203
  H       1.073654     -1.699552     -2.053055
  H       2.743557     -0.259399     -0.954803
  H       0.045069      3.474473      2.688126
  H       2.490115      3.297981      2.238635
  H       3.277233      1.561712      0.611198
34
Coordinates from ORCA-job 6higherenergy E -878.329395097057
  C      -3.352504     -0.766067     -0.391654
  C      -2.888852     -1.685808     -1.342292
  C      -1.544870     -1.732126     -1.641002
  C      -2.478836      0.095200      0.242074
  C      -1.085784      0.094525     -0.041892
  O      -3.033706      0.890961      1.239847
  C      -0.631352     -0.863433     -1.004145
  C       0.765080     -0.955788     -1.324403
  C       1.682714     -0.153392     -0.730988
  C      -0.098808      0.977997      0.572927
  C       1.276611      0.830262      0.226398
  N      -0.497897      1.927315      1.454135
  C       0.410040      2.715836      2.008121
  C       1.786887      2.634659      1.741983
  C       2.215180      1.685242      0.841313
  C      -3.333584      2.196378      0.919579
  O      -3.235405      2.626751     -0.216519
  N      -3.770742      2.882855      1.998043
  C      -3.925682      2.308454      3.331135
  C      -4.258798      4.246205      1.826813
  H      -3.707879      4.926291      2.482506
  H      -5.322050      4.305596      2.080470
  H      -4.120607      4.553627      0.794812
  H      -3.337734      1.402498      3.427177
  H      -4.976681      2.077945      3.537027
  H      -3.580611      3.032363      4.072953
  H      -1.166529     -2.443940     -2.367529
  H      -4.403177     -0.720087     -0.126876
  H      -3.587573     -2.355234     -1.832380
  H       1.071628     -1.695489     -2.057210
  H       2.737438     -0.237705     -0.974466
  H       0.035227      3.462867      2.704167
  H       2.479932      3.308801      2.232475
  H       3.267071      1.584282      0.591782
34
Coordinates from ORCA-job 6higherenergy E -878.329441429976
  C      -3.358398     -0.795898     -0.390553
  C      -2.884980     -1.717817     -1.334619
  C      -1.541419     -1.749085     -1.636501
  C      -2.494546      0.079519      0.237130
  C      -1.100673      0.088325     -0.043790
  O      -3.063538      0.879172      1.222953
  C      -0.637317     -0.866004     -1.005274
  C       0.758823     -0.940175     -1.331455
  C       1.668695     -0.125431     -0.742650
  C      -0.121283      0.976055      0.575215
  C       1.254598      0.848216      0.221508
  N      -0.526761      1.906603      1.472874
  C       0.373735      2.699793      2.032519
  C       1.749624      2.641940      1.754890
  C       2.184925      1.709103      0.840238
  C      -3.320103      2.194376      0.910959
  O      -3.194581      2.632264     -0.219840
  N      -3.745132      2.886187      1.990795
  C      -3.909549      2.310189      3.322489
  C      -4.204629      4.259964      1.824703
  H      -3.649640      4.922993      2.494114
  H      -5.270085      4.337770      2.063691
  H      -4.045253      4.573473      0.797524
  H      -3.340795      1.391230      3.412185
  H      -4.964703      2.101749      3.530294
  H      -3.546762      3.023828      4.065712
  H      -1.156234     -2.458557     -2.361590
  H      -4.409741     -0.757075     -0.127994
  H      -3.576741     -2.398849     -1.818394
  H       1.071593     -1.675682     -2.065765
  H       2.723043     -0.194418     -0.992205
  H      -0.007356      3.430081      2.742577
  H       2.436777      3.319508      2.248818
  H       3.236559      1.624494      0.583824
34
Coordinates from ORCA-job 6higherenergy E -878.329456595873
  C      -3.356536     -0.793230     -0.385810
  C      -2.885014     -1.716675     -1.329175
  C      -1.542155     -1.748237     -1.634023
  C      -2.491542      0.082952      0.239325
  C      -1.097867      0.088771     -0.041995
  O      -3.059240      0.886588      1.221916
  C      -0.637053     -0.864789     -1.005061
  C       0.757910     -0.937733     -1.336213
  C       1.669180     -0.122351     -0.750521
  C      -0.116444      0.972065      0.578807
  C       1.257778      0.847557      0.218445
  N      -0.518847      1.894642      1.485584
  C       0.383070      2.685270      2.046319
  C       1.757272      2.632498      1.760470
  C       2.189442      1.706351      0.837567
  C      -3.318937      2.200548      0.908675
  O      -3.196132      2.637732     -0.222529
  N      -3.750860      2.890498      1.986856
  C      -3.905603      2.316940      3.320444
  C      -4.223360      4.259153      1.817386
  H      -3.678157      4.928436      2.488506
  H      -5.290613      4.326287      2.051514
  H      -4.062501      4.573207      0.790536
  H      -3.325665      1.404920      3.411199
  H      -4.957665      2.097113      3.531900
  H      -3.548930      3.037619      4.059832
  H      -1.158330     -2.457982     -2.359377
  H      -4.407663     -0.752646     -0.123533
  H      -3.578128     -2.397809     -1.810592
  H       1.068452     -1.672431     -2.072105
  H       2.722364     -0.189026     -1.004999
  H       0.004276      3.408528      2.764649
  H       2.445803      3.308082      2.254959
  H       3.239845      1.624991      0.575426
34
Coordinates from ORCA-job 6higherenergy E -878.329458581899
  C      -3.356505     -0.794456     -0.384698
  C      -2.885025     -1.717213     -1.328581
  C      -1.542263     -1.747914     -1.634064
  C      -2.491620      0.082099      0.240049
  C      -1.098236      0.088663     -0.041863
  O      -3.059486      0.885685      1.222477
  C      -0.637465     -0.864293     -1.005279
  C       0.757378     -0.936443     -1.336939
  C       1.668393     -0.120789     -0.751321
  C      -0.117050      0.972006      0.579199
  C       1.256824      0.848383      0.218235
  N      -0.519799      1.893314      1.487173
  C       0.381970      2.683826      2.048080
  C       1.755865      2.632352      1.761424
  C       2.188208      1.707295      0.837550
  C      -3.319337      2.199605      0.908208
  O      -3.196854      2.635828     -0.223247
  N      -3.750353      2.890008      1.986332
  C      -3.904812      2.317350      3.319930
  C      -4.220937      4.259103      1.816166
  H      -3.676902      4.927843      2.488743
  H      -5.288723      4.327380      2.047698
  H      -4.057354      4.573223      0.789774
  H      -3.325514      1.404943      3.411054
  H      -4.956883      2.098451      3.532334
  H      -3.547058      3.038297      4.058583
  H      -1.158165     -2.457508     -2.359386
  H      -4.407595     -0.754216     -0.122296
  H      -3.578120     -2.398254     -1.810107
  H       1.068058     -1.670967     -2.072905
  H       2.721471     -0.186850     -1.006244
  H       0.003320      3.406169      2.767404
  H       2.444190      3.307989      2.256057
  H       3.238530      1.626930      0.574841
