
                                 *****************
                                 * O   R   C   A *
                                 *****************

                                            #,                                       
                                            ###                                      
                                            ####                                     
                                            #####                                    
                                            ######                                   
                                           ########,                                 
                                     ,,################,,,,,                         
                               ,,#################################,,                 
                          ,,##########################################,,             
                       ,#########################################, ''#####,          
                    ,#############################################,,   '####,        
                  ,##################################################,,,,####,       
                ,###########''''           ''''###############################       
              ,#####''   ,,,,##########,,,,          '''####'''          '####       
            ,##' ,,,,###########################,,,                        '##       
           ' ,,###''''                  '''############,,,                           
         ,,##''                                '''############,,,,        ,,,,,,###''
      ,#''                                            '''#######################'''  
     '                                                          ''''####''''         
             ,#######,   #######,   ,#######,      ##                                
            ,#'     '#,  ##    ##  ,#'     '#,    #''#        ######   ,####,        
            ##       ##  ##   ,#'  ##            #'  '#       #        #'  '#        
            ##       ##  #######   ##           ,######,      #####,   #    #        
            '#,     ,#'  ##    ##  '#,     ,#' ,#      #,         ##   #,  ,#        
             '#######'   ##     ##  '#######'  #'      '#     #####' # '####'        



                  #######################################################
                  #                        -***-                        #
                  #          Department of theory and spectroscopy      #
                  #    Directorship and core code : Frank Neese         #
                  #        Max Planck Institute fuer Kohlenforschung    #
                  #                Kaiser Wilhelm Platz 1               #
                  #                 D-45470 Muelheim/Ruhr               #
                  #                      Germany                        #
                  #                                                     #
                  #                  All rights reserved                #
                  #                        -***-                        #
                  #######################################################


                         Program Version 5.0.4 -  RELEASE  -


 With contributions from (in alphabetic order):
   Daniel Aravena         : Magnetic Suceptibility
   Michael Atanasov       : Ab Initio Ligand Field Theory (pilot matlab implementation)
   Alexander A. Auer      : GIAO ZORA, VPT2 properties, NMR spectrum
   Ute Becker             : Parallelization
   Giovanni Bistoni       : ED, misc. LED, open-shell LED, HFLD
   Martin Brehm           : Molecular dynamics
   Dmytro Bykov           : SCF Hessian
   Vijay G. Chilkuri      : MRCI spin determinant printing, contributions to CSF-ICE
   Dipayan Datta          : RHF DLPNO-CCSD density
   Achintya Kumar Dutta   : EOM-CC, STEOM-CC
   Dmitry Ganyushin       : Spin-Orbit,Spin-Spin,Magnetic field MRCI
   Miquel Garcia          : C-PCM and meta-GGA Hessian, CC/C-PCM, Gaussian charge scheme
   Yang Guo               : DLPNO-NEVPT2, F12-NEVPT2, CIM, IAO-localization
   Andreas Hansen         : Spin unrestricted coupled pair/coupled cluster methods
   Benjamin Helmich-Paris : MC-RPA, TRAH-SCF, COSX integrals
   Lee Huntington         : MR-EOM, pCC
   Robert Izsak           : Overlap fitted RIJCOSX, COSX-SCS-MP3, EOM
   Marcus Kettner         : VPT2
   Christian Kollmar      : KDIIS, OOCD, Brueckner-CCSD(T), CCSD density, CASPT2, CASPT2-K
   Simone Kossmann        : Meta GGA functionals, TD-DFT gradient, OOMP2, MP2 Hessian
   Martin Krupicka        : Initial AUTO-CI
   Lucas Lang             : DCDCAS
   Marvin Lechner         : AUTO-CI (C++ implementation), FIC-MRCC
   Dagmar Lenk            : GEPOL surface, SMD
   Dimitrios Liakos       : Extrapolation schemes; Compound Job, initial MDCI parallelization
   Dimitrios Manganas     : Further ROCIS development; embedding schemes
   Dimitrios Pantazis     : SARC Basis sets
   Anastasios Papadopoulos: AUTO-CI, single reference methods and gradients
   Taras Petrenko         : DFT Hessian,TD-DFT gradient, ASA, ECA, R-Raman, ABS, FL, XAS/XES, NRVS
   Peter Pinski           : DLPNO-MP2, DLPNO-MP2 Gradient
   Christoph Reimann      : Effective Core Potentials
   Marius Retegan         : Local ZFS, SOC
   Christoph Riplinger    : Optimizer, TS searches, QM/MM, DLPNO-CCSD(T), (RO)-DLPNO pert. Triples
   Tobias Risthaus        : Range-separated hybrids, TD-DFT gradient, RPA, STAB
   Michael Roemelt        : Original ROCIS implementation
   Masaaki Saitow         : Open-shell DLPNO-CCSD energy and density
   Barbara Sandhoefer     : DKH picture change effects
   Avijit Sen             : IP-ROCIS
   Kantharuban Sivalingam : CASSCF convergence, NEVPT2, FIC-MRCI
   Bernardo de Souza      : ESD, SOC TD-DFT
   Georgi Stoychev        : AutoAux, RI-MP2 NMR, DLPNO-MP2 response
   Willem Van den Heuvel  : Paramagnetic NMR
   Boris Wezisla          : Elementary symmetry handling
   Frank Wennmohs         : Technical directorship


 We gratefully acknowledge several colleagues who have allowed us to
 interface, adapt or use parts of their codes:
   Stefan Grimme, W. Hujo, H. Kruse, P. Pracht,  : VdW corrections, initial TS optimization,
                  C. Bannwarth, S. Ehlert          DFT functionals, gCP, sTDA/sTD-DF
   Ed Valeev, F. Pavosevic, A. Kumar             : LibInt (2-el integral package), F12 methods
   Garnet Chan, S. Sharma, J. Yang, R. Olivares  : DMRG
   Ulf Ekstrom                                   : XCFun DFT Library
   Mihaly Kallay                                 : mrcc  (arbitrary order and MRCC methods)
   Jiri Pittner, Ondrej Demel                    : Mk-CCSD
   Frank Weinhold                                : gennbo (NPA and NBO analysis)
   Christopher J. Cramer and Donald G. Truhlar   : smd solvation model
   Lars Goerigk                                  : TD-DFT with DH, B97 family of functionals
   V. Asgeirsson, H. Jonsson                     : NEB implementation
   FAccTs GmbH                                   : IRC, NEB, NEB-TS, DLPNO-Multilevel, CI-OPT
                                                   MM, QMMM, 2- and 3-layer-ONIOM, Crystal-QMMM,
                                                   LR-CPCM, SF, NACMEs, symmetry and pop. for TD-DFT,
                                                   nearIR, NL-DFT gradient (VV10), updates on ESD,
                                                   ML-optimized integration grids
   S Lehtola, MJT Oliveira, MAL Marques          : LibXC Library
   Liviu Ungur et al                             : ANISO software


 Your calculation uses the libint2 library for the computation of 2-el integrals
 For citations please refer to: http://libint.valeyev.net

 Your ORCA version has been built with support for libXC version: 5.1.0
 For citations please refer to: https://tddft.org/programs/libxc/

 This ORCA versions uses:
   CBLAS   interface :  Fast vector & matrix operations
   LAPACKE interface :  Fast linear algebra routines
   SCALAPACK package :  Parallel linear algebra routines
   Shared memory     :  Shared parallel matrices
   BLAS/LAPACK       :  OpenBLAS 0.3.15  USE64BITINT DYNAMIC_ARCH NO_AFFINITY Zen SINGLE_THREADED
        Core in use  :  Zen
   Copyright (c) 2011-2014, The OpenBLAS Project


================================================================================

----- Orbital basis set information -----
Your calculation utilizes the basis: def2-TZVP(-f)
   F. Weigend and R. Ahlrichs, Phys. Chem. Chem. Phys. 7, 3297 (2005).

----- AuxJ basis set information -----
Your calculation utilizes the auxiliary basis: def2/J
   F. Weigend, Phys. Chem. Chem. Phys. 8, 1057 (2006).

----- AuxC basis set information -----
Your calculation utilizes the auxiliary basis: def2-TZVP/C
  H-La, Hf-Rn : A. Hellweg, C. Hattig, S. Hofener and W. Klopper, Theor. Chem. Acc. 117, 587 (2007).
        Ce-Lu : J. Chmela and M. E. Harding, Mol. Phys. (2018).

================================================================================
                                        WARNINGS
                       Please study these warnings very carefully!
================================================================================


INFO   : the flag for use of the SHARK integral package has been found!

================================================================================
                                       INPUT FILE
================================================================================
NAME = HBQ-Keto_GS.inp
|  1> ! B3LYP/G FREQ Def2-TZVP(-f) Def2-TZVP/C Def2/J RIJCOSX TightSCF CPCM(Water) AllPop SOSCF
|  2> %maxcore 3000
|  3> 
|  4> * xyz 0 1
|  5>   C   -3.63956775583183     -0.54618188582515      0.13739126920685
|  6>   C   -3.64926397839464     -1.93306476913420      0.09291471448676
|  7>   C   -2.47297539031380     -2.67519804055184      0.04404517714981
|  8>   C   -1.24212575410320     -2.01155529675448      0.03833271758851
|  9>   C   -1.20894891681101     -0.58711641312248      0.08288256751980
| 10>   C   -2.43053308453654      0.19075070046080      0.13464276230973
| 11>   O   -2.40814321285587      1.48209970292208      0.17622719709657
| 12>   C   0.06130085891835      0.04680408144192      0.07475504530541
| 13>   C   1.27766593111321     -0.68254071261229      0.02507628906624
| 14>   C   1.20239993215207     -2.11101414935802     -0.01879399758284
| 15>   C   -0.00147203288381     -2.73536492194830     -0.01199275806921
| 16>   N   0.12095456236727      1.40523436851056      0.11653389934818
| 17>   C   1.26568697085965      2.09171214932852      0.11369628001277
| 18>   C   2.47614373704356      1.42419172917417      0.06657779563103
| 19>   C   2.47676402870315      0.03578302915836      0.02235100443542
| 20>   H   -0.85542544192966      1.82299917815447      0.15176859885097
| 21>   H   -4.56900179768702      0.00929966672137      0.17575387618930
| 22>   H   -4.60167309018968     -2.45118175726642      0.09690503515551
| 23>   H   -2.50006077688247     -3.75667770835636      0.01021009405954
| 24>   H   -0.04983758558140     -3.81739282501124     -0.04546255526550
| 25>   H   2.12480985229030     -2.67662135396231     -0.05700428170378
| 26>   H   3.41469421598316     -0.50479475355567     -0.01454401314123
| 27>   H   1.18309314731684      3.16849540032808      0.15000843117774
| 28>   H   3.39817558125339      1.98666458125844      0.06500485117243
| 29> *
| 30> 
| 31> 
| 32> 
| 33>                          ****END OF INPUT****
================================================================================

                       ****************************
                       * Single Point Calculation *
                       ****************************

---------------------------------
CARTESIAN COORDINATES (ANGSTROEM)
---------------------------------
  C     -3.639568   -0.546182    0.137391
  C     -3.649264   -1.933065    0.092915
  C     -2.472975   -2.675198    0.044045
  C     -1.242126   -2.011555    0.038333
  C     -1.208949   -0.587116    0.082883
  C     -2.430533    0.190751    0.134643
  O     -2.408143    1.482100    0.176227
  C      0.061301    0.046804    0.074755
  C      1.277666   -0.682541    0.025076
  C      1.202400   -2.111014   -0.018794
  C     -0.001472   -2.735365   -0.011993
  N      0.120955    1.405234    0.116534
  C      1.265687    2.091712    0.113696
  C      2.476144    1.424192    0.066578
  C      2.476764    0.035783    0.022351
  H     -0.855425    1.822999    0.151769
  H     -4.569002    0.009300    0.175754
  H     -4.601673   -2.451182    0.096905
  H     -2.500061   -3.756678    0.010210
  H     -0.049838   -3.817393   -0.045463
  H      2.124810   -2.676621   -0.057004
  H      3.414694   -0.504795   -0.014544
  H      1.183093    3.168495    0.150008
  H      3.398176    1.986665    0.065005

----------------------------
CARTESIAN COORDINATES (A.U.)
----------------------------
  NO LB      ZA    FRAG     MASS         X           Y           Z
   0 C     6.0000    0    12.011   -6.877786   -1.032134    0.259632
   1 C     6.0000    0    12.011   -6.896110   -3.652963    0.175583
   2 C     6.0000    0    12.011   -4.673246   -5.055392    0.083233
   3 C     6.0000    0    12.011   -2.347277   -3.801289    0.072438
   4 C     6.0000    0    12.011   -2.284582   -1.109489    0.156625
   5 C     6.0000    0    12.011   -4.593042    0.360467    0.254438
   6 O     8.0000    0    15.999   -4.550731    2.800763    0.333021
   7 C     6.0000    0    12.011    0.115842    0.088447    0.141267
   8 C     6.0000    0    12.011    2.414439   -1.289815    0.047387
   9 C     6.0000    0    12.011    2.272207   -3.989239   -0.035516
  10 C     6.0000    0    12.011   -0.002782   -5.169091   -0.022663
  11 N     7.0000    0    14.007    0.228571    2.655508    0.220217
  12 C     6.0000    0    12.011    2.391802    3.952763    0.214855
  13 C     6.0000    0    12.011    4.679234    2.691332    0.125814
  14 C     6.0000    0    12.011    4.680406    0.067620    0.042237
  15 H     1.0000    0     1.008   -1.616520    3.444969    0.286801
  16 H     1.0000    0     1.008   -8.634162    0.017574    0.332127
  17 H     1.0000    0     1.008   -8.695902   -4.632062    0.183124
  18 H     1.0000    0     1.008   -4.724430   -7.099092    0.019294
  19 H     1.0000    0     1.008   -0.094179   -7.213827   -0.085912
  20 H     1.0000    0     1.008    4.015309   -5.058081   -0.107722
  21 H     1.0000    0     1.008    6.452837   -0.953924   -0.027484
  22 H     1.0000    0     1.008    2.235722    5.987589    0.283475
  23 H     1.0000    0     1.008    6.421621    3.754252    0.122841

--------------------------------
INTERNAL COORDINATES (ANGSTROEM)
--------------------------------
 C      0   0   0     0.000000000000     0.00000000     0.00000000
 C      1   0   0     1.387629746246     0.00000000     0.00000000
 C      2   1   0     1.391691369045   121.88340144     0.00000000
 C      3   2   1     1.398372321862   119.40855244   359.95412022
 C      4   3   2     1.425521492249   119.64202976     0.00000000
 C      1   2   3     1.415924442693   121.74129038     0.03976618
 O      6   1   2     1.292212373307   122.33341608   180.02435116
 C      5   4   3     1.419667476132   117.82894110   180.02792622
 C      8   5   4     1.419139103926   122.52172027   359.97164635
 C      9   8   5     1.431127503802   117.96792474     0.03379416
 C     10   9   8     1.356159228222   120.40177334   359.97462083
 N      8   5   4     1.360381153135   119.00898637   179.99601496
 C     12   8   5     1.334792898802   123.44246752   179.95726305
 C     13  12   8     1.383115774508   120.15989668     0.00000000
 C     14  13  12     1.389113066709   118.93725242     0.00000000
 H     12   8   5     1.062584976845   110.69053404     0.00000000
 H      1   2   3     1.083457005604   120.50132932   180.04566498
 H      2   1   3     1.084225185227   118.92284117   179.97141820
 H      3   2   1     1.082347773540   120.84908705   179.97331634
 H     11  10   9     1.083625321326   119.94504685   179.99710348
 H     10   9   8     1.082687210824   118.53640284   179.99167151
 H     15  14  13     1.083189096002   120.01848519   180.02188264
 H     13  12   8     1.080556561057   116.54338576   180.02396098
 H     14  13  12     1.080055973190   119.72448670   180.02505289

---------------------------
INTERNAL COORDINATES (A.U.)
---------------------------
 C      0   0   0     0.000000000000     0.00000000     0.00000000
 C      1   0   0     2.622240195688     0.00000000     0.00000000
 C      2   1   0     2.629915550437   121.88340144     0.00000000
 C      3   2   1     2.642540721574   119.40855244   359.95412022
 C      4   3   2     2.693845218370   119.64202976     0.00000000
 C      1   2   3     2.675709423014   121.74129038     0.03976618
 O      6   1   2     2.441927492415   122.33341608   180.02435116
 C      5   4   3     2.682782731124   117.82894110   180.02792622
 C      8   5   4     2.681784252358   122.52172027   359.97164635
 C      9   8   5     2.704439044908   117.96792474     0.03379416
 C     10   9   8     2.562769535330   120.40177334   359.97462083
 N      8   5   4     2.570747817174   119.00898637   179.99601496
 C     12   8   5     2.522393024239   123.44246752   179.95726305
 C     13  12   8     2.613710025327   120.15989668     0.00000000
 C     14  13  12     2.625043265131   118.93725242     0.00000000
 H     12   8   5     2.007994600256   110.69053404     0.00000000
 H      1   2   3     2.047437018471   120.50132932   180.04566498
 H      2   1   3     2.048888667579   118.92284117   179.97141820
 H      3   2   1     2.045340873651   120.84908705   179.97331634
 H     11  10   9     2.047755089089   119.94504685   179.99710348
 H     10   9   8     2.045982317157   118.53640284   179.99167151
 H     15  14  13     2.046930742693   120.01848519   180.02188264
 H     13  12   8     2.041955972609   116.54338576   180.02396098
 H     14  13  12     2.041009998635   119.72448670   180.02505289

---------------------
BASIS SET INFORMATION
---------------------
There are 4 groups of distinct atoms

 Group   1 Type C   : 11s6p2d contracted to 5s3p2d pattern {62111/411/11}
 Group   2 Type O   : 11s6p2d contracted to 5s3p2d pattern {62111/411/11}
 Group   3 Type N   : 11s6p2d contracted to 5s3p2d pattern {62111/411/11}
 Group   4 Type H   : 5s1p contracted to 3s1p pattern {311/1}

Atom   0C    basis set group =>   1
Atom   1C    basis set group =>   1
Atom   2C    basis set group =>   1
Atom   3C    basis set group =>   1
Atom   4C    basis set group =>   1
Atom   5C    basis set group =>   1
Atom   6O    basis set group =>   2
Atom   7C    basis set group =>   1
Atom   8C    basis set group =>   1
Atom   9C    basis set group =>   1
Atom  10C    basis set group =>   1
Atom  11N    basis set group =>   3
Atom  12C    basis set group =>   1
Atom  13C    basis set group =>   1
Atom  14C    basis set group =>   1
Atom  15H    basis set group =>   4
Atom  16H    basis set group =>   4
Atom  17H    basis set group =>   4
Atom  18H    basis set group =>   4
Atom  19H    basis set group =>   4
Atom  20H    basis set group =>   4
Atom  21H    basis set group =>   4
Atom  22H    basis set group =>   4
Atom  23H    basis set group =>   4
---------------------------------
AUXILIARY/J BASIS SET INFORMATION
---------------------------------
There are 4 groups of distinct atoms

 Group   1 Type C   : 12s5p4d2f1g contracted to 6s4p3d1f1g pattern {711111/2111/211/2/1}
 Group   2 Type O   : 12s5p4d2f1g contracted to 6s4p3d1f1g pattern {711111/2111/211/2/1}
 Group   3 Type N   : 12s5p4d2f1g contracted to 6s4p3d1f1g pattern {711111/2111/211/2/1}
 Group   4 Type H   : 5s2p1d contracted to 3s1p1d pattern {311/2/1}

Atom   0C    basis set group =>   1
Atom   1C    basis set group =>   1
Atom   2C    basis set group =>   1
Atom   3C    basis set group =>   1
Atom   4C    basis set group =>   1
Atom   5C    basis set group =>   1
Atom   6O    basis set group =>   2
Atom   7C    basis set group =>   1
Atom   8C    basis set group =>   1
Atom   9C    basis set group =>   1
Atom  10C    basis set group =>   1
Atom  11N    basis set group =>   3
Atom  12C    basis set group =>   1
Atom  13C    basis set group =>   1
Atom  14C    basis set group =>   1
Atom  15H    basis set group =>   4
Atom  16H    basis set group =>   4
Atom  17H    basis set group =>   4
Atom  18H    basis set group =>   4
Atom  19H    basis set group =>   4
Atom  20H    basis set group =>   4
Atom  21H    basis set group =>   4
Atom  22H    basis set group =>   4
Atom  23H    basis set group =>   4
---------------------------------
AUXILIARY/C BASIS SET INFORMATION
---------------------------------
There are 4 groups of distinct atoms

 Group   1 Type C   : 8s6p5d3f1g contracted to 8s6p4d3f1g pattern {11111111/111111/2111/111/1}
 Group   2 Type O   : 8s6p5d3f1g contracted to 8s6p4d3f1g pattern {11111111/111111/2111/111/1}
 Group   3 Type N   : 8s6p5d3f1g contracted to 8s6p4d3f1g pattern {11111111/111111/2111/111/1}
 Group   4 Type H   : 4s3p2d contracted to 4s2p1d pattern {1111/21/2}

Atom   0C    basis set group =>   1
Atom   1C    basis set group =>   1
Atom   2C    basis set group =>   1
Atom   3C    basis set group =>   1
Atom   4C    basis set group =>   1
Atom   5C    basis set group =>   1
Atom   6O    basis set group =>   2
Atom   7C    basis set group =>   1
Atom   8C    basis set group =>   1
Atom   9C    basis set group =>   1
Atom  10C    basis set group =>   1
Atom  11N    basis set group =>   3
Atom  12C    basis set group =>   1
Atom  13C    basis set group =>   1
Atom  14C    basis set group =>   1
Atom  15H    basis set group =>   4
Atom  16H    basis set group =>   4
Atom  17H    basis set group =>   4
Atom  18H    basis set group =>   4
Atom  19H    basis set group =>   4
Atom  20H    basis set group =>   4
Atom  21H    basis set group =>   4
Atom  22H    basis set group =>   4
Atom  23H    basis set group =>   4
------------------------------------------------------------------------------
                           ORCA GTO INTEGRAL CALCULATION
                           -- RI-GTO INTEGRALS CHOSEN --
------------------------------------------------------------------------------
------------------------------------------------------------------------------
                   ___                                                        
                  /   \      - P O W E R E D   B Y -                         
                 /     \                                                     
                 |  |  |   _    _      __       _____    __    __             
                 |  |  |  | |  | |    /  \     |  _  \  |  |  /  |          
                  \  \/   | |  | |   /    \    | | | |  |  | /  /          
                 / \  \   | |__| |  /  /\  \   | |_| |  |  |/  /          
                |  |  |   |  __  | /  /__\  \  |    /   |      \           
                |  |  |   | |  | | |   __   |  |    \   |  |\   \          
                \     /   | |  | | |  |  |  |  | |\  \  |  | \   \       
                 \___/    |_|  |_| |__|  |__|  |_| \__\ |__|  \__/        
                                                                              
                      - O R C A' S   B I G   F R I E N D -                    
                                      &                                       
                       - I N T E G R A L  F E E D E R -                       
                                                                              
 v1 FN, 2020, v2 2021                                                         
------------------------------------------------------------------------------


Reading SHARK input file HBQ-Keto_GS.SHARKINP.tmp ... ok
----------------------
SHARK INTEGRAL PACKAGE
----------------------

Number of atoms                             ...     24
Number of basis functions                   ...    414
Number of shells                            ...    186
Maximum angular momentum                    ...      2
Integral batch strategy                     ... SHARK/LIBINT Hybrid
RI-J (if used) integral strategy            ... SPLIT-RIJ (Revised 2003 algorithm where possible)
Printlevel                                  ...      1
Contraction scheme used                     ... SEGMENTED contraction
Coulomb Range Separation                    ... NOT USED
Exchange Range Separation                   ... NOT USED
Finite Nucleus Model                        ... NOT USED
Auxiliary Coulomb fitting basis             ... AVAILABLE
   # of basis functions in Aux-J            ...    834
   # of shells in Aux-J                     ...    270
   Maximum angular momentum in Aux-J        ...      4
Auxiliary J/K fitting basis                 ... NOT available
Auxiliary Correlation fitting basis         ... AVAILABLE
   # of basis functions in Aux-C            ...   1275
   # of shells in Aux-C                     ...    393
   Maximum angular momentum in Aux-C        ...      4
Auxiliary 'external' fitting basis          ... NOT available
Integral threshold                          ...     2.500000e-11
Primitive cut-off                           ...     2.500000e-12
Primitive pair pre-selection threshold      ...     2.500000e-12

Calculating pre-screening integrals         ... done (  0.1 sec) Dimension = 186
Organizing shell pair data                  ... done (  0.2 sec)
Shell pair information
Total number of shell pairs                 ...     17391
Shell pairs after pre-screening             ...     14567
Total number of primitive shell pairs       ...     57987
Primitive shell pairs kept                  ...     33623
          la=0 lb=0:   4126 shell pairs
          la=1 lb=0:   4695 shell pairs
          la=1 lb=1:   1338 shell pairs
          la=2 lb=0:   2551 shell pairs
          la=2 lb=1:   1448 shell pairs
          la=2 lb=2:    409 shell pairs

Calculating one electron integrals          ... done (  0.1 sec)
Calculating RI/J V-Matrix + Cholesky decomp.... done (  0.1 sec)
Calculating RI/C V-Matrix + Cholesky decomp.... done (  0.3 sec)
Calculating Nuclear repulsion               ... done (  0.0 sec) ENN=    907.596503256078 Eh

SHARK setup successfully completed in   1.6 seconds

Maximum memory used throughout the entire GTOINT-calculation: 123.6 MB
-------------------------------------------------------------------------------
                                 ORCA SCF
-------------------------------------------------------------------------------

------------
SCF SETTINGS
------------
Hamiltonian:
 Density Functional     Method          .... DFT(GTOs)
 Exchange Functional    Exchange        .... B88
   X-Alpha parameter    XAlpha          ....  0.666667
   Becke's b parameter  XBeta           ....  0.004200
 Correlation Functional Correlation     .... LYP
 LDA part of GGA corr.  LDAOpt          .... VWN-3
 Gradients option       PostSCFGGA      .... off
 Hybrid DFT is turned on
   Fraction HF Exchange ScalHFX         ....  0.200000
   Scaling of DF-GGA-X  ScalDFX         ....  0.720000
   Scaling of DF-GGA-C  ScalDFC         ....  0.810000
   Scaling of DF-LDA-C  ScalLDAC        ....  1.000000
   Perturbative correction              ....  0.000000
   Density functional embedding theory  .... OFF
   NL short-range parameter             ....  4.800000
 RI-approximation to the Coulomb term is turned on
   Number of AuxJ basis functions       .... 834
   RIJ-COSX (HFX calculated with COS-X)).... on


General Settings:
 Integral files         IntName         .... HBQ-Keto_GS
 Hartree-Fock type      HFTyp           .... RHF
 Total Charge           Charge          ....    0
 Multiplicity           Mult            ....    1
 Number of Electrons    NEL             ....  102
 Basis Dimension        Dim             ....  414
 Nuclear Repulsion      ENuc            ....    907.5965032561 Eh

Convergence Acceleration:
 DIIS                   CNVDIIS         .... on
   Start iteration      DIISMaxIt       ....    12
   Startup error        DIISStart       ....  0.200000
   # of expansion vecs  DIISMaxEq       ....     5
   Bias factor          DIISBfac        ....   1.050
   Max. coefficient     DIISMaxC        ....  10.000
 Trust-Rad. Augm. Hess. CNVTRAH         .... auto
   Auto Start mean grad. ratio tolernc. ....  1.125000
   Auto Start start iteration           ....    20
   Auto Start num. interpolation iter.  ....    10
   Max. Number of Micro iterations      ....    16
   Max. Number of Macro iterations      .... Maxiter - #DIIS iter
   Number of Davidson start vectors     ....     2
   Converg. threshold I  (grad. norm)   ....   1.000e-05
   Converg. threshold II (energy diff.) ....   1.000e-08
   Grad. Scal. Fac. for Micro threshold ....   0.100
   Minimum threshold for Micro iter.    ....   0.010
   NR start threshold (gradient norm)   ....   0.001
   Initial trust radius                 ....   0.400
   Minimum AH scaling param. (alpha)    ....   1.000
   Maximum AH scaling param. (alpha)    .... 1000.000
   Orbital update algorithm             .... Taylor
   White noise on init. David. guess    .... on
   Maximum white noise                  ....   0.010
   Quad. conv. algorithm                .... NR
 SOSCF                  CNVSOSCF        .... on
   Start iteration      SOSCFMaxIt      ....   150
   Startup grad/error   SOSCFStart      ....  0.003300
 Level Shifting         CNVShift        .... on
   Level shift para.    LevelShift      ....    0.2500
   Turn off err/grad.   ShiftErr        ....    0.0010
 Zerner damping         CNVZerner       .... off
 Static damping         CNVDamp         .... on
   Fraction old density DampFac         ....    0.7000
   Max. Damping (<1)    DampMax         ....    0.9800
   Min. Damping (>=0)   DampMin         ....    0.0000
   Turn off err/grad.   DampErr         ....    0.1000
 Fernandez-Rico         CNVRico         .... off

SCF Procedure:
 Maximum # iterations   MaxIter         ....   125
 SCF integral mode      SCFMode         .... Direct
   Integral package                     .... SHARK and LIBINT hybrid scheme
 Reset frequency        DirectResetFreq ....    20
 Integral Threshold     Thresh          ....  2.500e-11 Eh
 Primitive CutOff       TCut            ....  2.500e-12 Eh

Convergence Tolerance:
 Convergence Check Mode ConvCheckMode   .... Total+1el-Energy
 Convergence forced     ConvForced      .... 0
 Energy Change          TolE            ....  1.000e-08 Eh
 1-El. energy change                    ....  1.000e-05 Eh
 Orbital Gradient       TolG            ....  1.000e-05
 Orbital Rotation angle TolX            ....  1.000e-05
 DIIS Error             TolErr          ....  5.000e-07


Diagonalization of the overlap matrix:
Smallest eigenvalue                        ... 4.679e-06
Time for diagonalization                   ...    0.023 sec
Threshold for overlap eigenvalues          ... 1.000e-08
Number of eigenvalues below threshold      ... 0
Time for construction of square roots      ...    0.039 sec
Total time needed                          ...    0.062 sec

Time for model grid setup =    0.595 sec

------------------------------
INITIAL GUESS: MODEL POTENTIAL
------------------------------
Loading Hartree-Fock densities                     ... done
Calculating cut-offs                               ... done
Initializing the effective Hamiltonian             ... done
Setting up the integral package (SHARK)            ... done
Starting the Coulomb interaction                   ... done (   1.0 sec)
Reading the grid                                   ... done
Mapping shells                                     ... done
Starting the XC term evaluation                    ... done (   0.9 sec)
  promolecular density results
     # of electrons  =    101.992377046
     EX              =    -84.352127437
     EC              =     -3.484068663
     EX+EC           =    -87.836196101
Transforming the Hamiltonian                       ... done (   0.0 sec)
Diagonalizing the Hamiltonian                      ... done (   0.0 sec)
Back transforming the eigenvectors                 ... done (   0.0 sec)
Now organizing SCF variables                       ... done
                      ------------------
                      INITIAL GUESS DONE (   2.5 sec)
                      ------------------
-------------------
DFT GRID GENERATION
-------------------

General Integration Accuracy     IntAcc      ... 4.388
Radial Grid Type                 RadialGrid  ... OptM3 with GC (2021)
Angular Grid (max. ang.)         AngularGrid ... 4 (Lebedev-302)
Angular grid pruning method      GridPruning ... 4 (adaptive)
Weight generation scheme         WeightScheme... Becke
Basis function cutoff            BFCut       ... 1.0000e-11
Integration weight cutoff        WCut        ... 1.0000e-14
Angular grids for H and He will be reduced by one unit
Partially contracted basis set               ... off
Rotationally invariant grid construction     ... off

Total number of grid points                  ...   118392
Total number of batches                      ...     1860
Average number of points per batch           ...       63
Average number of grid points per atom       ...     4933
Time for grid setup =    1.999 sec

--------------------
COSX GRID GENERATION
--------------------

GRIDX 1
-------
General Integration Accuracy     IntAcc      ... 3.816
Radial Grid Type                 RadialGrid  ... OptM3 with GC (2021)
Angular Grid (max. ang.)         AngularGrid ... 1 (Lebedev-50)
Angular grid pruning method      GridPruning ... 4 (adaptive)
Weight generation scheme         WeightScheme... Becke
Basis function cutoff            BFCut       ... 1.0000e-11
Integration weight cutoff        WCut        ... 1.0000e-14
Angular grids for H and He will be reduced by one unit
Partially contracted basis set               ... on
Rotationally invariant grid construction     ... off

Total number of grid points                  ...    15091
Total number of batches                      ...      244
Average number of points per batch           ...       61
Average number of grid points per atom       ...      629
UseSFitting                                  ... on

GRIDX 2
-------
General Integration Accuracy     IntAcc      ... 4.020
Radial Grid Type                 RadialGrid  ... OptM3 with GC (2021)
Angular Grid (max. ang.)         AngularGrid ... 2 (Lebedev-110)
Angular grid pruning method      GridPruning ... 4 (adaptive)
Weight generation scheme         WeightScheme... Becke
Basis function cutoff            BFCut       ... 1.0000e-11
Integration weight cutoff        WCut        ... 1.0000e-14
Angular grids for H and He will be reduced by one unit
Partially contracted basis set               ... on
Rotationally invariant grid construction     ... off

Total number of grid points                  ...    33205
Total number of batches                      ...      533
Average number of points per batch           ...       62
Average number of grid points per atom       ...     1384
UseSFitting                                  ... on

GRIDX 3
-------
General Integration Accuracy     IntAcc      ... 4.338
Radial Grid Type                 RadialGrid  ... OptM3 with GC (2021)
Angular Grid (max. ang.)         AngularGrid ... 3 (Lebedev-194)
Angular grid pruning method      GridPruning ... 4 (adaptive)
Weight generation scheme         WeightScheme... Becke
Basis function cutoff            BFCut       ... 1.0000e-11
Integration weight cutoff        WCut        ... 1.0000e-14
Angular grids for H and He will be reduced by one unit
Partially contracted basis set               ... on
Rotationally invariant grid construction     ... off

Total number of grid points                  ...    73079
Total number of batches                      ...     1154
Average number of points per batch           ...       63
Average number of grid points per atom       ...     3045
UseSFitting                                  ... on

Time for X-Grid setup             =    3.369 sec


--------------------
CPCM SOLVATION MODEL
--------------------
CPCM parameters:
  Epsilon                                         ...      80.4000
  Refrac                                          ...       1.3300
  Rsolv                                           ...       1.3000
  Surface type                                    ... GAUSSIAN VDW
  Epsilon function type                           ...         CPCM
Radii:
 Radius for C  used is    3.8550 Bohr (=   2.0400 Ang.)
 Radius for O  used is    3.4469 Bohr (=   1.8240 Ang.)
 Radius for N  used is    3.5149 Bohr (=   1.8600 Ang.)
 Radius for H  used is    2.4944 Bohr (=   1.3200 Ang.)
Calculating surface                               ...        done! (  0.0s)
GEPOL surface points                              ...         1258
GEPOL Volume                                      ...    1540.5057
GEPOL Surface-area                                ...     784.4362
Calculating surface distance matrix               ...        done! (  0.0s)
Performing Cholesky decomposition & store         ...        done! (  0.1s)
Overall time for CPCM initialization              ...                 0.1s
--------------
SCF ITERATIONS
--------------
ITER       Energy         Delta-E        Max-DP      RMS-DP      [F,P]     Damp
               ***  Starting incremental Fock matrix formation  ***
  0   -630.6969872096   0.000000000000 0.95644972  0.00768391  0.3190753 0.7000
  1   -630.8471006123  -0.150113402739 0.95528649  0.00752833  0.1277484 0.7000
                               ***Turning on DIIS***
  2   -630.9110225605  -0.063921948145 1.02423430  0.00858178  0.0400851 0.0000
  3   -631.0097128822  -0.098690321768 0.97117518  0.00750322  0.0645341 0.0000
  4   -631.0304575669  -0.020744684652 0.18909254  0.00151697  0.0203053 0.0000
  5   -631.0317492984  -0.001291731481 0.13067527  0.00100610  0.0114097 0.0000
                      *** Initiating the SOSCF procedure ***
                           *** Shutting down DIIS ***
                      *** Re-Reading the Fockian *** 
                      *** Removing any level shift *** 
ITER      Energy       Delta-E        Grad      Rot      Max-DP    RMS-DP
  6   -631.03192394  -0.0001746397  0.000305  0.000305  0.060948  0.000466
               *** Restarting incremental Fock matrix formation ***
  7   -631.03187366   0.0000502763  0.000319  0.001531  0.007325  0.000074
  8   -631.03186466   0.0000090008  0.000562  0.000899  0.002571  0.000028
  9   -631.03187850  -0.0000138399  0.000032  0.000149  0.001339  0.000010
 10   -631.03187840   0.0000001012  0.000049  0.000068  0.000252  0.000003
 11   -631.03187859  -0.0000001920  0.000003  0.000012  0.000314  0.000004
 12   -631.03187860  -0.0000000111  0.000004  0.000009  0.000442  0.000004
                  ***Gradient check signals convergence***
              ***Rediagonalizing the Fockian in SOSCF/NRSCF***

               *****************************************************
               *                     SUCCESS                       *
               *           SCF CONVERGED AFTER  13 CYCLES          *
               *****************************************************

Old exchange energy                            =    -17.106430145 Eh
New exchange energy                            =    -17.106399386 Eh
Exchange energy change after final integration =      0.000030759 Eh
Total energy after final integration           =   -631.031847840 Eh
Final COS-X integration done in                =    53.664 sec

----------------
TOTAL SCF ENERGY
----------------

Total Energy       :         -631.03184784 Eh          -17171.24955 eV

Components:
Nuclear Repulsion  :          907.59650326 Eh           24696.95642 eV
Electronic Energy  :        -1538.62835110 Eh          -41868.20597 eV
One Electron Energy:        -2655.42672074 Eh          -72257.83459 eV
Two Electron Energy:         1116.79836965 Eh           30389.62862 eV
Max COSX asymmetry :            0.00000193 Eh               0.00005 eV
CPCM Dielectric    :           -0.02551816 Eh              -0.69438 eV

Virial components:
Potential Energy   :        -1259.01609731 Eh          -34259.56973 eV
Kinetic Energy     :          627.98424947 Eh           17088.32018 eV
Virial Ratio       :            2.00485299


DFT components:
N(Alpha)           :       51.000033386172 electrons
N(Beta)            :       51.000033386172 electrons
N(Total)           :      102.000066772344 electrons
E(X)               :      -68.013663344318 Eh       
E(C)               :       -4.484620680693 Eh       
E(XC)              :      -72.498284025011 Eh       
DFET-embed. en.    :        0.000000000000 Eh       
CPCM Solvation Model Properties:
Surface-charge          :           -0.02838392
Charge-correction       :           -0.00026959 Eh              -0.00734 eV
Free-energy (cav+disp)  :  This term is not implemented in the current solvation scheme

---------------
SCF CONVERGENCE
---------------

  Last Energy change         ...    3.2230e-09  Tolerance :   1.0000e-08
  Last MAX-Density change    ...    2.6645e-15  Tolerance :   1.0000e-07
  Last RMS-Density change    ...    2.6486e-17  Tolerance :   5.0000e-09
  Last Orbital Gradient      ...    9.1081e-07  Tolerance :   1.0000e-05
  Last Orbital Rotation      ...    2.0269e-06  Tolerance :   1.0000e-05

             **** THE GBW FILE WAS UPDATED (HBQ-Keto_GS.gbw) ****
             **** DENSITY HBQ-Keto_GS.scfp WAS UPDATED ****
             **** ENERGY FILE WAS UPDATED (HBQ-Keto_GS.en.tmp) ****
             **** THE GBW FILE WAS UPDATED (HBQ-Keto_GS.gbw) ****
             **** DENSITY HBQ-Keto_GS.scfp WAS UPDATED ****
----------------
ORBITAL ENERGIES
----------------

  NO   OCC          E(Eh)            E(eV) 
   0   2.0000     -19.080754      -519.2137 
   1   2.0000     -14.389284      -391.5523 
   2   2.0000     -10.246014      -278.8082 
   3   2.0000     -10.243672      -278.7445 
   4   2.0000     -10.230345      -278.3818 
   5   2.0000     -10.210634      -277.8455 
   6   2.0000     -10.209106      -277.8039 
   7   2.0000     -10.198113      -277.5048 
   8   2.0000     -10.192974      -277.3649 
   9   2.0000     -10.187964      -277.2286 
  10   2.0000     -10.187009      -277.2026 
  11   2.0000     -10.184005      -277.1209 
  12   2.0000     -10.176898      -276.9275 
  13   2.0000     -10.163497      -276.5628 
  14   2.0000     -10.159691      -276.4593 
  15   2.0000      -1.017001       -27.6740 
  16   2.0000      -0.986951       -26.8563 
  17   2.0000      -0.879216       -23.9247 
  18   2.0000      -0.843499       -22.9528 
  19   2.0000      -0.819809       -22.3081 
  20   2.0000      -0.782761       -21.3000 
  21   2.0000      -0.750909       -20.4333 
  22   2.0000      -0.721048       -19.6207 
  23   2.0000      -0.671026       -18.2596 
  24   2.0000      -0.662530       -18.0284 
  25   2.0000      -0.640878       -17.4392 
  26   2.0000      -0.601398       -16.3649 
  27   2.0000      -0.567208       -15.4345 
  28   2.0000      -0.547445       -14.8967 
  29   2.0000      -0.527816       -14.3626 
  30   2.0000      -0.513774       -13.9805 
  31   2.0000      -0.488940       -13.3047 
  32   2.0000      -0.483284       -13.1508 
  33   2.0000      -0.466342       -12.6898 
  34   2.0000      -0.458042       -12.4640 
  35   2.0000      -0.444928       -12.1071 
  36   2.0000      -0.434600       -11.8261 
  37   2.0000      -0.422768       -11.5041 
  38   2.0000      -0.407897       -11.0994 
  39   2.0000      -0.398750       -10.8505 
  40   2.0000      -0.392691       -10.6857 
  41   2.0000      -0.380632       -10.3575 
  42   2.0000      -0.366066        -9.9612 
  43   2.0000      -0.357474        -9.7274 
  44   2.0000      -0.355745        -9.6803 
  45   2.0000      -0.328877        -8.9492 
  46   2.0000      -0.316992        -8.6258 
  47   2.0000      -0.272891        -7.4257 
  48   2.0000      -0.250830        -6.8254 
  49   2.0000      -0.250528        -6.8172 
  50   2.0000      -0.197466        -5.3733 
  51   0.0000      -0.082681        -2.2499 
  52   0.0000      -0.051623        -1.4047 
  53   0.0000      -0.018845        -0.5128 
  54   0.0000       0.020299         0.5524 
  55   0.0000       0.052680         1.4335 
  56   0.0000       0.054370         1.4795 
  57   0.0000       0.062017         1.6876 
  58   0.0000       0.072129         1.9627 
  59   0.0000       0.079316         2.1583 
  60   0.0000       0.088051         2.3960 
  61   0.0000       0.097658         2.6574 
  62   0.0000       0.105628         2.8743 
  63   0.0000       0.111288         3.0283 
  64   0.0000       0.112144         3.0516 
  65   0.0000       0.123438         3.3589 
  66   0.0000       0.134195         3.6516 
  67   0.0000       0.146650         3.9905 
  68   0.0000       0.161396         4.3918 
  69   0.0000       0.175365         4.7719 
  70   0.0000       0.175770         4.7830 
  71   0.0000       0.179010         4.8711 
  72   0.0000       0.180054         4.8995 
  73   0.0000       0.197509         5.3745 
  74   0.0000       0.211772         5.7626 
  75   0.0000       0.213616         5.8128 
  76   0.0000       0.214108         5.8262 
  77   0.0000       0.217573         5.9205 
  78   0.0000       0.221786         6.0351 
  79   0.0000       0.233342         6.3496 
  80   0.0000       0.240324         6.5395 
  81   0.0000       0.243163         6.6168 
  82   0.0000       0.252750         6.8777 
  83   0.0000       0.258077         7.0226 
  84   0.0000       0.262138         7.1331 
  85   0.0000       0.266835         7.2609 
  86   0.0000       0.273176         7.4335 
  87   0.0000       0.276304         7.5186 
  88   0.0000       0.284578         7.7438 
  89   0.0000       0.294868         8.0238 
  90   0.0000       0.299844         8.1592 
  91   0.0000       0.300316         8.1720 
  92   0.0000       0.313346         8.5266 
  93   0.0000       0.314840         8.5672 
  94   0.0000       0.325223         8.8498 
  95   0.0000       0.339009         9.2249 
  96   0.0000       0.343732         9.3534 
  97   0.0000       0.348079         9.4717 
  98   0.0000       0.352416         9.5897 
  99   0.0000       0.355888         9.6842 
 100   0.0000       0.365766         9.9530 
 101   0.0000       0.380777        10.3615 
 102   0.0000       0.387121        10.5341 
 103   0.0000       0.392612        10.6835 
 104   0.0000       0.396917        10.8007 
 105   0.0000       0.401736        10.9318 
 106   0.0000       0.408647        11.1199 
 107   0.0000       0.412824        11.2335 
 108   0.0000       0.429517        11.6877 
 109   0.0000       0.430582        11.7167 
 110   0.0000       0.436284        11.8719 
 111   0.0000       0.442423        12.0389 
 112   0.0000       0.447849        12.1866 
 113   0.0000       0.451905        12.2969 
 114   0.0000       0.466140        12.6843 
 115   0.0000       0.470318        12.7980 
 116   0.0000       0.471629        12.8337 
 117   0.0000       0.478461        13.0196 
 118   0.0000       0.485640        13.2149 
 119   0.0000       0.498544        13.5661 
 120   0.0000       0.498907        13.5760 
 121   0.0000       0.511315        13.9136 
 122   0.0000       0.513398        13.9703 
 123   0.0000       0.520602        14.1663 
 124   0.0000       0.522869        14.2280 
 125   0.0000       0.543610        14.7924 
 126   0.0000       0.546464        14.8700 
 127   0.0000       0.565952        15.4003 
 128   0.0000       0.590397        16.0655 
 129   0.0000       0.594495        16.1770 
 130   0.0000       0.602619        16.3981 
 131   0.0000       0.606973        16.5166 
 132   0.0000       0.612627        16.6704 
 133   0.0000       0.616875        16.7860 
 134   0.0000       0.633103        17.2276 
 135   0.0000       0.648175        17.6377 
 136   0.0000       0.652285        17.7496 
 137   0.0000       0.660393        17.9702 
 138   0.0000       0.680991        18.5307 
 139   0.0000       0.683785        18.6067 
 140   0.0000       0.688843        18.7444 
 141   0.0000       0.689369        18.7587 
 142   0.0000       0.693269        18.8648 
 143   0.0000       0.705492        19.1974 
 144   0.0000       0.709011        19.2932 
 145   0.0000       0.723962        19.7000 
 146   0.0000       0.736027        20.0283 
 147   0.0000       0.739679        20.1277 
 148   0.0000       0.746025        20.3004 
 149   0.0000       0.753478        20.5032 
 150   0.0000       0.759224        20.6595 
 151   0.0000       0.766624        20.8609 
 152   0.0000       0.784383        21.3441 
 153   0.0000       0.787871        21.4391 
 154   0.0000       0.802074        21.8256 
 155   0.0000       0.804044        21.8792 
 156   0.0000       0.805874        21.9289 
 157   0.0000       0.822697        22.3867 
 158   0.0000       0.837731        22.7958 
 159   0.0000       0.844417        22.9777 
 160   0.0000       0.854202        23.2440 
 161   0.0000       0.862437        23.4681 
 162   0.0000       0.867940        23.6179 
 163   0.0000       0.880438        23.9579 
 164   0.0000       0.888541        24.1784 
 165   0.0000       0.901420        24.5289 
 166   0.0000       0.917492        24.9662 
 167   0.0000       0.929243        25.2860 
 168   0.0000       0.933490        25.4016 
 169   0.0000       0.960466        26.1356 
 170   0.0000       0.976719        26.5779 
 171   0.0000       0.978239        26.6192 
 172   0.0000       0.981426        26.7060 
 173   0.0000       0.986615        26.8472 
 174   0.0000       1.012388        27.5485 
 175   0.0000       1.029871        28.0242 
 176   0.0000       1.034172        28.1413 
 177   0.0000       1.051225        28.6053 
 178   0.0000       1.071426        29.1550 
 179   0.0000       1.102443        29.9990 
 180   0.0000       1.119061        30.4512 
 181   0.0000       1.138554        30.9816 
 182   0.0000       1.150622        31.3100 
 183   0.0000       1.152301        31.3557 
 184   0.0000       1.153506        31.3885 
 185   0.0000       1.172939        31.9173 
 186   0.0000       1.182888        32.1880 
 187   0.0000       1.211835        32.9757 
 188   0.0000       1.218858        33.1668 
 189   0.0000       1.225455        33.3463 
 190   0.0000       1.236773        33.6543 
 191   0.0000       1.238065        33.6895 
 192   0.0000       1.261152        34.3177 
 193   0.0000       1.263569        34.3835 
 194   0.0000       1.271172        34.5903 
 195   0.0000       1.288813        35.0704 
 196   0.0000       1.303999        35.4836 
 197   0.0000       1.309428        35.6313 
 198   0.0000       1.322747        35.9938 
 199   0.0000       1.329484        36.1771 
 200   0.0000       1.331058        36.2199 
 201   0.0000       1.348013        36.6813 
 202   0.0000       1.363722        37.1088 
 203   0.0000       1.371340        37.3161 
 204   0.0000       1.404105        38.2077 
 205   0.0000       1.405886        38.2561 
 206   0.0000       1.416452        38.5436 
 207   0.0000       1.428314        38.8664 
 208   0.0000       1.438538        39.1446 
 209   0.0000       1.453259        39.5452 
 210   0.0000       1.453543        39.5529 
 211   0.0000       1.465924        39.8898 
 212   0.0000       1.486108        40.4391 
 213   0.0000       1.490815        40.5671 
 214   0.0000       1.504029        40.9267 
 215   0.0000       1.509928        41.0872 
 216   0.0000       1.523450        41.4552 
 217   0.0000       1.537207        41.8295 
 218   0.0000       1.539051        41.8797 
 219   0.0000       1.542743        41.9802 
 220   0.0000       1.560841        42.4726 
 221   0.0000       1.570633        42.7391 
 222   0.0000       1.583854        43.0989 
 223   0.0000       1.591477        43.3063 
 224   0.0000       1.606803        43.7233 
 225   0.0000       1.624203        44.1968 
 226   0.0000       1.634153        44.4676 
 227   0.0000       1.655914        45.0597 
 228   0.0000       1.658307        45.1248 
 229   0.0000       1.663549        45.2675 
 230   0.0000       1.676114        45.6094 
 231   0.0000       1.679718        45.7074 
 232   0.0000       1.683343        45.8061 
 233   0.0000       1.690077        45.9893 
 234   0.0000       1.699216        46.2380 
 235   0.0000       1.715351        46.6771 
 236   0.0000       1.749873        47.6165 
 237   0.0000       1.758702        47.8567 
 238   0.0000       1.768161        48.1141 
 239   0.0000       1.772932        48.2439 
 240   0.0000       1.786861        48.6230 
 241   0.0000       1.808446        49.2103 
 242   0.0000       1.816857        49.4392 
 243   0.0000       1.831158        49.8283 
 244   0.0000       1.836024        49.9608 
 245   0.0000       1.859216        50.5918 
 246   0.0000       1.865255        50.7562 
 247   0.0000       1.891042        51.4579 
 248   0.0000       1.922615        52.3170 
 249   0.0000       1.944051        52.9003 
 250   0.0000       1.946655        52.9712 
 251   0.0000       1.987206        54.0746 
 252   0.0000       1.990471        54.1635 
 253   0.0000       2.017960        54.9115 
 254   0.0000       2.027974        55.1840 
 255   0.0000       2.060217        56.0613 
 256   0.0000       2.060845        56.0784 
 257   0.0000       2.079404        56.5835 
 258   0.0000       2.094192        56.9859 
 259   0.0000       2.149988        58.5042 
 260   0.0000       2.180785        59.3422 
 261   0.0000       2.209964        60.1362 
 262   0.0000       2.234424        60.8018 
 263   0.0000       2.241291        60.9886 
 264   0.0000       2.256383        61.3993 
 265   0.0000       2.267794        61.7098 
 266   0.0000       2.279123        62.0181 
 267   0.0000       2.292850        62.3916 
 268   0.0000       2.308652        62.8216 
 269   0.0000       2.310968        62.8846 
 270   0.0000       2.324933        63.2646 
 271   0.0000       2.336858        63.5891 
 272   0.0000       2.348721        63.9119 
 273   0.0000       2.351277        63.9815 
 274   0.0000       2.353293        64.0364 
 275   0.0000       2.376316        64.6629 
 276   0.0000       2.386419        64.9378 
 277   0.0000       2.408744        65.5453 
 278   0.0000       2.434340        66.2417 
 279   0.0000       2.437946        66.3399 
 280   0.0000       2.470467        67.2248 
 281   0.0000       2.527826        68.7856 
 282   0.0000       2.545186        69.2580 
 283   0.0000       2.584580        70.3300 
 284   0.0000       2.602246        70.8107 
 285   0.0000       2.611391        71.0596 
 286   0.0000       2.629121        71.5420 
 287   0.0000       2.650413        72.1214 
 288   0.0000       2.662735        72.4567 
 289   0.0000       2.673055        72.7375 
 290   0.0000       2.690732        73.2185 
 291   0.0000       2.695365        73.3446 
 292   0.0000       2.705318        73.6154 
 293   0.0000       2.713772        73.8455 
 294   0.0000       2.717700        73.9524 
 295   0.0000       2.739255        74.5389 
 296   0.0000       2.753022        74.9135 
 297   0.0000       2.790503        75.9334 
 298   0.0000       2.813488        76.5589 
 299   0.0000       2.820120        76.7394 
 300   0.0000       2.842173        77.3394 
 301   0.0000       2.849988        77.5521 
 302   0.0000       2.850271        77.5598 
 303   0.0000       2.866808        78.0098 
 304   0.0000       2.869634        78.0867 
 305   0.0000       2.879686        78.3602 
 306   0.0000       2.888832        78.6091 
 307   0.0000       2.908627        79.1478 
 308   0.0000       2.913814        79.2889 
 309   0.0000       2.929201        79.7076 
 310   0.0000       2.931406        79.7676 
 311   0.0000       2.957454        80.4764 
 312   0.0000       2.958801        80.5131 
 313   0.0000       2.966999        80.7361 
 314   0.0000       2.973906        80.9241 
 315   0.0000       2.993328        81.4526 
 316   0.0000       3.003989        81.7427 
 317   0.0000       3.009332        81.8881 
 318   0.0000       3.031590        82.4938 
 319   0.0000       3.039255        82.7023 
 320   0.0000       3.053221        83.0824 
 321   0.0000       3.053624        83.0933 
 322   0.0000       3.068721        83.5041 
 323   0.0000       3.081216        83.8442 
 324   0.0000       3.090912        84.1080 
 325   0.0000       3.099925        84.3532 
 326   0.0000       3.124266        85.0156 
 327   0.0000       3.131930        85.2241 
 328   0.0000       3.146118        85.6102 
 329   0.0000       3.150664        85.7339 
 330   0.0000       3.161988        86.0421 
 331   0.0000       3.178709        86.4971 
 332   0.0000       3.200876        87.1003 
 333   0.0000       3.213304        87.4384 
 334   0.0000       3.222612        87.6917 
 335   0.0000       3.237868        88.1069 
 336   0.0000       3.243174        88.2513 
 337   0.0000       3.262480        88.7766 
 338   0.0000       3.266678        88.8908 
 339   0.0000       3.276175        89.1493 
 340   0.0000       3.287005        89.4440 
 341   0.0000       3.315489        90.2190 
 342   0.0000       3.332469        90.6811 
 343   0.0000       3.340627        90.9031 
 344   0.0000       3.362909        91.5094 
 345   0.0000       3.377941        91.9184 
 346   0.0000       3.385718        92.1301 
 347   0.0000       3.391458        92.2863 
 348   0.0000       3.407091        92.7117 
 349   0.0000       3.415164        92.9313 
 350   0.0000       3.433224        93.4228 
 351   0.0000       3.441207        93.6400 
 352   0.0000       3.443449        93.7010 
 353   0.0000       3.489146        94.9445 
 354   0.0000       3.510768        95.5329 
 355   0.0000       3.516287        95.6830 
 356   0.0000       3.522346        95.8479 
 357   0.0000       3.547559        96.5340 
 358   0.0000       3.570291        97.1526 
 359   0.0000       3.600689        97.9797 
 360   0.0000       3.625523        98.6555 
 361   0.0000       3.635033        98.9143 
 362   0.0000       3.649890        99.3186 
 363   0.0000       3.661131        99.6244 
 364   0.0000       3.665666        99.7478 
 365   0.0000       3.683681       100.2381 
 366   0.0000       3.714675       101.0815 
 367   0.0000       3.725718       101.3819 
 368   0.0000       3.767456       102.5177 
 369   0.0000       3.782570       102.9290 
 370   0.0000       3.798997       103.3760 
 371   0.0000       3.860229       105.0422 
 372   0.0000       3.872238       105.3690 
 373   0.0000       3.917098       106.5896 
 374   0.0000       3.957174       107.6802 
 375   0.0000       3.976848       108.2155 
 376   0.0000       4.014482       109.2396 
 377   0.0000       4.051328       110.2422 
 378   0.0000       4.071328       110.7865 
 379   0.0000       4.145628       112.8083 
 380   0.0000       4.169968       113.4706 
 381   0.0000       4.243212       115.4637 
 382   0.0000       4.280170       116.4694 
 383   0.0000       4.333799       117.9287 
 384   0.0000       4.354498       118.4919 
 385   0.0000       4.430732       120.5663 
 386   0.0000       4.530539       123.2822 
 387   0.0000       4.587766       124.8395 
 388   0.0000       4.654322       126.6505 
 389   0.0000       4.741545       129.0240 
 390   0.0000       4.810284       130.8945 
 391   0.0000       5.000053       136.0584 
 392   0.0000       5.432468       147.8250 
 393   0.0000       5.572904       151.6464 
 394   0.0000       6.370392       173.3472 
 395   0.0000       6.555940       178.3962 
 396   0.0000       6.656185       181.1240 
 397   0.0000       6.853514       186.4936 
 398   0.0000       6.873155       187.0281 
 399   0.0000      21.622402       588.3755 
 400   0.0000      21.939174       596.9953 
 401   0.0000      22.012676       598.9954 
 402   0.0000      22.199224       604.0716 
 403   0.0000      22.284838       606.4013 
 404   0.0000      22.313751       607.1880 
 405   0.0000      22.380158       608.9950 
 406   0.0000      22.437309       610.5502 
 407   0.0000      22.461539       611.2096 
 408   0.0000      22.590672       614.7234 
 409   0.0000      22.653301       616.4277 
 410   0.0000      22.971247       625.0794 
 411   0.0000      23.462050       638.4348 
 412   0.0000      32.427941       882.4091 
 413   0.0000      43.880557      1194.0507 

                    ********************************
                    * MULLIKEN POPULATION ANALYSIS *
                    ********************************

-----------------------
MULLIKEN ATOMIC CHARGES
-----------------------
   0 C :   -0.246625
   1 C :   -0.054047
   2 C :   -0.278133
   3 C :    0.292707
   4 C :    0.048606
   5 C :    0.298628
   6 O :   -0.728484
   7 C :    0.075370
   8 C :    0.290016
   9 C :   -0.248822
  10 C :   -0.249375
  11 N :   -0.248399
  12 C :    0.107551
  13 C :   -0.054506
  14 C :   -0.176549
  15 H :    0.236624
  16 H :    0.073129
  17 H :    0.104133
  18 H :    0.103313
  19 H :    0.108912
  20 H :    0.108504
  21 H :    0.135561
  22 H :    0.164185
  23 H :    0.137702
Sum of atomic charges:    0.0000000

--------------------------------
MULLIKEN REDUCED ORBITAL CHARGES
--------------------------------
  0 C s       :     3.285505  s :     3.285505
      pz      :     1.063380  p :     2.890365
      px      :     0.920852
      py      :     0.906133
      dz2     :     0.006509  d :     0.070755
      dxz     :     0.007522
      dyz     :     0.015844
      dx2y2   :     0.017790
      dxy     :     0.023090
  1 C s       :     3.153320  s :     3.153320
      pz      :     0.934782  p :     2.807500
      px      :     0.937747
      py      :     0.934971
      dz2     :     0.005453  d :     0.093227
      dxz     :     0.009756
      dyz     :     0.023658
      dx2y2   :     0.026084
      dxy     :     0.028276
  2 C s       :     3.219065  s :     3.219065
      pz      :     1.064808  p :     2.974804
      px      :     0.954533
      py      :     0.955462
      dz2     :     0.005568  d :     0.084264
      dxz     :     0.021386
      dyz     :     0.005605
      dx2y2   :     0.028348
      dxy     :     0.023357
  3 C s       :     3.013804  s :     3.013804
      pz      :     0.901596  p :     2.533072
      px      :     0.803771
      py      :     0.827705
      dz2     :     0.007496  d :     0.160417
      dxz     :     0.027252
      dyz     :     0.027676
      dx2y2   :     0.048609
      dxy     :     0.049385
  4 C s       :     3.324717  s :     3.324717
      pz      :     1.053253  p :     2.503457
      px      :     0.738509
      py      :     0.711695
      dz2     :     0.010429  d :     0.123220
      dxz     :     0.018829
      dyz     :     0.021190
      dx2y2   :     0.042350
      dxy     :     0.030423
  5 C s       :     2.918508  s :     2.918508
      pz      :     0.843671  p :     2.564727
      px      :     0.921863
      py      :     0.799194
      dz2     :     0.005327  d :     0.218137
      dxz     :     0.020846
      dyz     :     0.048489
      dx2y2   :     0.032814
      dxy     :     0.110660
  6 O s       :     3.866943  s :     3.866943
      pz      :     1.638863  p :     4.831185
      px      :     1.789039
      py      :     1.403282
      dz2     :     0.003500  d :     0.030356
      dxz     :     0.000219
      dyz     :     0.008743
      dx2y2   :     0.011929
      dxy     :     0.005964
  7 C s       :     3.029209  s :     3.029209
      pz      :     0.898396  p :     2.727851
      px      :     1.051685
      py      :     0.777770
      dz2     :     0.005694  d :     0.167570
      dxz     :     0.030675
      dyz     :     0.031804
      dx2y2   :     0.043759
      dxy     :     0.055638
  8 C s       :     3.037766  s :     3.037766
      pz      :     0.928240  p :     2.526260
      px      :     0.848564
      py      :     0.749456
      dz2     :     0.008974  d :     0.145958
      dxz     :     0.019012
      dyz     :     0.028182
      dx2y2   :     0.049499
      dxy     :     0.040292
  9 C s       :     3.290378  s :     3.290378
      pz      :     0.988494  p :     2.870974
      px      :     0.927287
      py      :     0.955193
      dz2     :     0.005503  d :     0.087470
      dxz     :     0.011060
      dyz     :     0.017855
      dx2y2   :     0.031998
      dxy     :     0.021053
 10 C s       :     3.289734  s :     3.289734
      pz      :     0.950393  p :     2.870447
      px      :     0.979992
      py      :     0.940063
      dz2     :     0.005369  d :     0.089194
      dxz     :     0.024896
      dyz     :     0.005189
      dx2y2   :     0.028272
      dxy     :     0.025469
 11 N s       :     3.488698  s :     3.488698
      pz      :     1.374589  p :     3.681471
      px      :     1.113560
      py      :     1.193322
      dz2     :     0.005537  d :     0.078230
      dxz     :     0.008904
      dyz     :     0.015459
      dx2y2   :     0.026842
      dxy     :     0.021490
 12 C s       :     3.122206  s :     3.122206
      pz      :     0.888160  p :     2.667989
      px      :     0.803409
      py      :     0.976421
      dz2     :     0.004048  d :     0.102254
      dxz     :     0.030553
      dyz     :     0.007570
      dx2y2   :     0.032684
      dxy     :     0.027399
 13 C s       :     3.131816  s :     3.131816
      pz      :     0.985809  p :     2.843281
      px      :     0.930053
      py      :     0.927419
      dz2     :     0.006380  d :     0.079410
      dxz     :     0.008939
      dyz     :     0.015486
      dx2y2   :     0.020029
      dxy     :     0.028576
 14 C s       :     3.225251  s :     3.225251
      pz      :     0.889623  p :     2.862907
      px      :     0.998216
      py      :     0.975068
      dz2     :     0.005042  d :     0.088391
      dxz     :     0.010545
      dyz     :     0.019986
      dx2y2   :     0.022106
      dxy     :     0.030712
 15 H s       :     0.700788  s :     0.700788
      pz      :     0.009163  p :     0.062588
      px      :     0.045898
      py      :     0.007527
 16 H s       :     0.900681  s :     0.900681
      pz      :     0.005988  p :     0.026190
      px      :     0.013387
      py      :     0.006814
 17 H s       :     0.870215  s :     0.870215
      pz      :     0.005027  p :     0.025652
      px      :     0.014127
      py      :     0.006497
 18 H s       :     0.870057  s :     0.870057
      pz      :     0.006151  p :     0.026630
      px      :     0.003370
      py      :     0.017108
 19 H s       :     0.865056  s :     0.865056
      pz      :     0.005097  p :     0.026032
      px      :     0.003349
      py      :     0.017586
 20 H s       :     0.865155  s :     0.865155
      pz      :     0.005406  p :     0.026341
      px      :     0.013569
      py      :     0.007366
 21 H s       :     0.838423  s :     0.838423
      pz      :     0.004588  p :     0.026016
      px      :     0.014485
      py      :     0.006943
 22 H s       :     0.810092  s :     0.810092
      pz      :     0.004637  p :     0.025724
      px      :     0.002498
      py      :     0.018589
 23 H s       :     0.835547  s :     0.835547
      pz      :     0.005441  p :     0.026750
      px      :     0.014064
      py      :     0.007246


                     *******************************
                     * LOEWDIN POPULATION ANALYSIS *
                     *******************************

----------------------
LOEWDIN ATOMIC CHARGES
----------------------
   0 C :   -0.145116
   1 C :   -0.134589
   2 C :   -0.144640
   3 C :   -0.096477
   4 C :   -0.057296
   5 C :   -0.239278
   6 O :   -0.213638
   7 C :   -0.035571
   8 C :   -0.086688
   9 C :   -0.092918
  10 C :   -0.076607
  11 N :    0.192393
  12 C :   -0.077177
  13 C :   -0.120295
  14 C :   -0.035816
  15 H :    0.199183
  16 H :    0.132119
  17 H :    0.138980
  18 H :    0.137759
  19 H :    0.147406
  20 H :    0.147849
  21 H :    0.155366
  22 H :    0.153193
  23 H :    0.151856

-------------------------------
LOEWDIN REDUCED ORBITAL CHARGES
-------------------------------
  0 C s       :     2.782223  s :     2.782223
      pz      :     0.965468  p :     3.018069
      px      :     0.999741
      py      :     1.052861
      dz2     :     0.025305  d :     0.344823
      dxz     :     0.021894
      dyz     :     0.051221
      dx2y2   :     0.103525
      dxy     :     0.142878
  1 C s       :     2.780460  s :     2.780460
      pz      :     0.874570  p :     2.961109
      px      :     1.021617
      py      :     1.064922
      dz2     :     0.023816  d :     0.393020
      dxz     :     0.030184
      dyz     :     0.078317
      dx2y2   :     0.117982
      dxy     :     0.142722
  2 C s       :     2.767983  s :     2.767983
      pz      :     0.968984  p :     3.013471
      px      :     1.044492
      py      :     0.999995
      dz2     :     0.023845  d :     0.363186
      dxz     :     0.067965
      dyz     :     0.014081
      dx2y2   :     0.155940
      dxy     :     0.101355
  3 C s       :     2.710171  s :     2.710171
      pz      :     0.843849  p :     2.871297
      px      :     1.016436
      py      :     1.011012
      dz2     :     0.031530  d :     0.515009
      dxz     :     0.077213
      dyz     :     0.081049
      dx2y2   :     0.162276
      dxy     :     0.162941
  4 C s       :     2.704095  s :     2.704095
      pz      :     0.934501  p :     2.901013
      px      :     0.975594
      py      :     0.990919
      dz2     :     0.032966  d :     0.452188
      dxz     :     0.056521
      dyz     :     0.061685
      dx2y2   :     0.146461
      dxy     :     0.154555
  5 C s       :     2.732349  s :     2.732349
      pz      :     0.807589  p :     2.768093
      px      :     1.031570
      py      :     0.928933
      dz2     :     0.044847  d :     0.738835
      dxz     :     0.064237
      dyz     :     0.158746
      dx2y2   :     0.204639
      dxy     :     0.266367
  6 O s       :     3.457707  s :     3.457707
      pz      :     1.561340  p :     4.693096
      px      :     1.678907
      py      :     1.452850
      dz2     :     0.007477  d :     0.062834
      dxz     :     0.000243
      dyz     :     0.014563
      dx2y2   :     0.022612
      dxy     :     0.017939
  7 C s       :     2.700871  s :     2.700871
      pz      :     0.836763  p :     2.761152
      px      :     1.024547
      py      :     0.899842
      dz2     :     0.038259  d :     0.573547
      dxz     :     0.081798
      dyz     :     0.095286
      dx2y2   :     0.186801
      dxy     :     0.171402
  8 C s       :     2.707772  s :     2.707772
      pz      :     0.861303  p :     2.885266
      px      :     1.011440
      py      :     1.012523
      dz2     :     0.032536  d :     0.493650
      dxz     :     0.056695
      dyz     :     0.078087
      dx2y2   :     0.162139
      dxy     :     0.164192
  9 C s       :     2.770336  s :     2.770336
      pz      :     0.908599  p :     2.958448
      px      :     1.041111
      py      :     1.008739
      dz2     :     0.023438  d :     0.364133
      dxz     :     0.029846
      dyz     :     0.054812
      dx2y2   :     0.119084
      dxy     :     0.136953
 10 C s       :     2.773364  s :     2.773364
      pz      :     0.876721  p :     2.933808
      px      :     1.054220
      py      :     1.002868
      dz2     :     0.023796  d :     0.369435
      dxz     :     0.077067
      dyz     :     0.011630
      dx2y2   :     0.155550
      dxy     :     0.101392
 11 N s       :     2.940755  s :     2.940755
      pz      :     1.237592  p :     3.628618
      px      :     1.198884
      py      :     1.192142
      dz2     :     0.015168  d :     0.238235
      dxz     :     0.020477
      dyz     :     0.041064
      dx2y2   :     0.082517
      dxy     :     0.079009
 12 C s       :     2.780693  s :     2.780693
      pz      :     0.847560  p :     2.843114
      px      :     0.995938
      py      :     0.999616
      dz2     :     0.029177  d :     0.453370
      dxz     :     0.104089
      dyz     :     0.017862
      dx2y2   :     0.180930
      dxy     :     0.121312
 13 C s       :     2.776977  s :     2.776977
      pz      :     0.913226  p :     2.988297
      px      :     1.024693
      py      :     1.050378
      dz2     :     0.024136  d :     0.355020
      dxz     :     0.025915
      dyz     :     0.050550
      dx2y2   :     0.105840
      dxy     :     0.148579
 14 C s       :     2.774822  s :     2.774822
      pz      :     0.824870  p :     2.890665
      px      :     1.014022
      py      :     1.051774
      dz2     :     0.023894  d :     0.370328
      dxz     :     0.027071
      dyz     :     0.062139
      dx2y2   :     0.113125
      dxy     :     0.144099
 15 H s       :     0.640023  s :     0.640023
      pz      :     0.022151  p :     0.160794
      px      :     0.119767
      py      :     0.018877
 16 H s       :     0.806445  s :     0.806445
      pz      :     0.015126  p :     0.061436
      px      :     0.029126
      py      :     0.017184
 17 H s       :     0.801324  s :     0.801324
      pz      :     0.012562  p :     0.059695
      px      :     0.030255
      py      :     0.016878
 18 H s       :     0.799992  s :     0.799992
      pz      :     0.015763  p :     0.062249
      px      :     0.011047
      py      :     0.035440
 19 H s       :     0.791950  s :     0.791950
      pz      :     0.012830  p :     0.060644
      px      :     0.010908
      py      :     0.036906
 20 H s       :     0.790634  s :     0.790634
      pz      :     0.013702  p :     0.061517
      px      :     0.029420
      py      :     0.018395
 21 H s       :     0.783660  s :     0.783660
      pz      :     0.011568  p :     0.060974
      px      :     0.031670
      py      :     0.017736
 22 H s       :     0.784341  s :     0.784341
      pz      :     0.012195  p :     0.062465
      px      :     0.009455
      py      :     0.040815
 23 H s       :     0.785753  s :     0.785753
      pz      :     0.013606  p :     0.062391
      px      :     0.030526
      py      :     0.018260


                      *****************************
                      * MAYER POPULATION ANALYSIS *
                      *****************************

  NA   - Mulliken gross atomic population
  ZA   - Total nuclear charge
  QA   - Mulliken gross atomic charge
  VA   - Mayer's total valence
  BVA  - Mayer's bonded valence
  FA   - Mayer's free valence

  ATOM       NA         ZA         QA         VA         BVA        FA
  0 C      6.2466     6.0000    -0.2466     4.0553     4.0553    -0.0000
  1 C      6.0540     6.0000    -0.0540     3.8331     3.8331    -0.0000
  2 C      6.2781     6.0000    -0.2781     3.8619     3.8619    -0.0000
  3 C      5.7073     6.0000     0.2927     3.7811     3.7811    -0.0000
  4 C      5.9514     6.0000     0.0486     3.3655     3.3655     0.0000
  5 C      5.7014     6.0000     0.2986     3.9695     3.9695    -0.0000
  6 O      8.7285     8.0000    -0.7285     1.8038     1.8038     0.0000
  7 C      5.9246     6.0000     0.0754     3.8781     3.8781     0.0000
  8 C      5.7100     6.0000     0.2900     3.9014     3.9014     0.0000
  9 C      6.2488     6.0000    -0.2488     3.7787     3.7787    -0.0000
 10 C      6.2494     6.0000    -0.2494     3.7906     3.7906    -0.0000
 11 N      7.2484     7.0000    -0.2484     3.3390     3.3390     0.0000
 12 C      5.8924     6.0000     0.1076     3.9019     3.9019     0.0000
 13 C      6.0545     6.0000    -0.0545     3.8732     3.8732    -0.0000
 14 C      6.1765     6.0000    -0.1765     3.9750     3.9750     0.0000
 15 H      0.7634     1.0000     0.2366     1.0180     1.0180     0.0000
 16 H      0.9269     1.0000     0.0731     1.0042     1.0042    -0.0000
 17 H      0.8959     1.0000     0.1041     0.9618     0.9618    -0.0000
 18 H      0.8967     1.0000     0.1033     0.9745     0.9745    -0.0000
 19 H      0.8911     1.0000     0.1089     0.9757     0.9757    -0.0000
 20 H      0.8915     1.0000     0.1085     0.9759     0.9759    -0.0000
 21 H      0.8644     1.0000     0.1356     0.9674     0.9674     0.0000
 22 H      0.8358     1.0000     0.1642     0.9631     0.9631     0.0000
 23 H      0.8623     1.0000     0.1377     0.9639     0.9639    -0.0000

  Mayer bond orders larger than 0.100000
B(  0-C ,  1-C ) :   1.4319 B(  0-C ,  5-C ) :   1.3995 B(  0-C , 16-H ) :   1.0061 
B(  1-C ,  2-C ) :   1.3393 B(  1-C , 17-H ) :   0.9887 B(  2-C ,  3-C ) :   1.3220 
B(  2-C , 18-H ) :   0.9933 B(  3-C ,  4-C ) :   1.2814 B(  3-C , 10-C ) :   1.1221 
B(  4-C ,  5-C ) :   1.0186 B(  4-C ,  7-C ) :   1.0986 B(  5-C ,  6-O ) :   1.4588 
B(  6-O , 15-H ) :   0.2328 B(  7-C ,  8-C ) :   1.3206 B(  7-C , 11-N ) :   1.2820 
B(  8-C ,  9-C ) :   1.1218 B(  8-C , 14-C ) :   1.3445 B(  9-C , 10-C ) :   1.5339 
B(  9-C , 20-H ) :   1.0175 B( 10-C , 19-H ) :   1.0108 B( 11-N , 12-C ) :   1.3194 
B( 11-N , 15-H ) :   0.7384 B( 12-C , 13-C ) :   1.4153 B( 12-C , 22-H ) :   0.9480 
B( 13-C , 14-C ) :   1.3904 B( 13-C , 23-H ) :   0.9647 B( 14-C , 21-H ) :   0.9619 


Environment variable NBOEXE for nbo6.exe or nbo5.exe not set! Skipping NBO-Analysis

-------
TIMINGS
-------

Total SCF time: 0 days 0 hours 6 min 36 sec 

Total time                  ....     396.280 sec
Sum of individual times     ....     393.332 sec  ( 99.3%)

Fock matrix formation       ....     383.725 sec  ( 96.8%)
  Split-RI-J                ....      28.368 sec  (  7.4% of F)
  Chain of spheres X        ....     277.974 sec  ( 72.4% of F)
  XC integration            ....      38.160 sec  (  9.9% of F)
    Basis function eval.    ....       9.816 sec  ( 25.7% of XC)
    Density eval.           ....      12.452 sec  ( 32.6% of XC)
    XC-Functional eval.     ....       1.241 sec  (  3.3% of XC)
    XC-Potential eval.      ....      11.221 sec  ( 29.4% of XC)
Diagonalization             ....       0.236 sec  (  0.1%)
Density matrix formation    ....       0.031 sec  (  0.0%)
Population analysis         ....       0.267 sec  (  0.1%)
Initial guess               ....       1.870 sec  (  0.5%)
Orbital Transformation      ....       0.000 sec  (  0.0%)
Orbital Orthonormalization  ....       0.000 sec  (  0.0%)
DIIS solution               ....       1.047 sec  (  0.3%)
SOSCF solution              ....       0.194 sec  (  0.0%)
Grid generation             ....       5.963 sec  (  1.5%)

Maximum memory used throughout the entire SCF-calculation: 195.3 MB

-------------------------   --------------------
FINAL SINGLE POINT ENERGY      -631.031847840380
-------------------------   --------------------


                            ***************************************
                            *     ORCA property calculations      *
                            ***************************************

                                    ---------------------
                                    Active property flags
                                    ---------------------
   (+) Dipole Moment


------------------------------------------------------------------------------
                       ORCA ELECTRIC PROPERTIES CALCULATION
------------------------------------------------------------------------------

Dipole Moment Calculation                       ... on
Quadrupole Moment Calculation                   ... off
Polarizability Calculation                      ... off
GBWName                                         ... HBQ-Keto_GS.gbw
Electron density                                ... HBQ-Keto_GS.scfp
The origin for moment calculation is the CENTER OF MASS  = (-1.064719, -0.744306  0.141521)

-------------
DIPOLE MOMENT
[...]
     71      -0.009569  -0.006701   0.002632   0.000266  -0.000002  -0.000000
                 66         67         68         69         70         71    
      0      -0.063237   0.001325  -0.018011   0.002910   0.000052   0.000015
      1       0.038417  -0.000857   0.012619  -0.001977  -0.000068  -0.000053
      2       0.002618  -0.000056   0.000798  -0.000127  -0.000003  -0.000002
      3      -0.025585   0.001759  -0.030890   0.004802  -0.000070   0.000003
      4      -0.017718   0.000871  -0.015095   0.002116  -0.000041   0.000022
      5      -0.000011  -0.000010   0.000184  -0.000036   0.000000   0.000001
      6       0.002273   0.000001  -0.001045  -0.000047  -0.000021   0.000015
      7       0.031521   0.003688  -0.076316   0.014046  -0.000034   0.000039
      8       0.000955   0.000118  -0.002411   0.000449   0.000000   0.000002
      9      -0.000704  -0.000258   0.002886   0.001140  -0.000019  -0.000024
     10      -0.000125   0.000079   0.000615  -0.000593   0.000125   0.000029
     11       0.000012   0.000008  -0.000043  -0.000044   0.000005   0.000002
     12       0.000083  -0.000112  -0.000033  -0.000059  -0.000264  -0.000107
     13      -0.000729   0.000038   0.000519  -0.000284  -0.000216  -0.000082
     14      -0.000025   0.000004   0.000016  -0.000007  -0.000001  -0.000000
     15       0.001926  -0.000041   0.000686  -0.000012   0.000118   0.000059
     16       0.002417  -0.000158   0.000774  -0.000248   0.000008   0.000072
     17       0.000035  -0.000004   0.000010  -0.000008  -0.000003   0.000001
     18      -0.000143   0.000009  -0.000061  -0.000019  -0.000097  -0.000176
     19      -0.000511   0.000041  -0.000163   0.000125  -0.000012  -0.000040
     20      -0.000014   0.000001  -0.000004   0.000005   0.000001   0.000001
     21       0.000065   0.000538   0.000345   0.000458   0.000241   0.000453
     22       0.000259   0.000039  -0.000070  -0.000383   0.001280   0.001035
     23       0.000007  -0.000011  -0.000010  -0.000022   0.000035   0.000023
     24      -0.000103   0.002192  -0.000030  -0.000308  -0.000667   0.000540
     25      -0.000048   0.001886  -0.000199  -0.002126  -0.000737   0.000339
     26       0.000001   0.000013  -0.000006  -0.000061  -0.000009  -0.000000
     27       0.004499   0.008401  -0.014657  -0.067111   0.000491  -0.000200
     28      -0.003035  -0.004475   0.008618   0.038006  -0.000106   0.000173
     29      -0.000195  -0.000326   0.000595   0.002679  -0.000014   0.000011
     30       0.000358  -0.000915   0.000705   0.005518  -0.000091  -0.000017
     31       0.009473  -0.006688  -0.000773   0.039856   0.000170   0.000018
     32       0.000297  -0.000194  -0.000042   0.001153   0.000008   0.000002
     33       0.000052  -0.000276  -0.000104  -0.000298  -0.000192   0.000736
     34      -0.000006  -0.000210  -0.000068   0.000047   0.000473   0.001424
     35      -0.000002  -0.000000   0.000001   0.000008   0.000019   0.000029
     36      -0.000102   0.000461   0.000057   0.000182   0.003131   0.008080
     37      -0.000045  -0.002073  -0.000210  -0.000245  -0.055829  -0.068340
     38       0.000000  -0.000078  -0.000008  -0.000012  -0.001873  -0.002380
     39       0.000117   0.012152   0.000900   0.001910   0.054449  -0.050904
     40      -0.000097   0.004280   0.000318   0.000880   0.035888  -0.027647
     41      -0.000005  -0.000121  -0.000008  -0.000013  -0.000008   0.000195
     42      -0.000565  -0.073935  -0.005182  -0.008739   0.010319  -0.006406
     43       0.000490   0.042149   0.002991   0.005052  -0.007944   0.006369
     44       0.000028   0.002894   0.000204   0.000343  -0.000469   0.000338
     45       0.000306   0.001046   0.000251   0.002220   0.004068   0.008814
     46      -0.000498  -0.000526   0.000027  -0.001097  -0.004228  -0.007414
     47      -0.000021  -0.000040  -0.000003  -0.000087  -0.000233  -0.000444
     48       0.728509  -0.015309   0.207554  -0.033399  -0.000590  -0.000431
     49      -0.431084   0.009124  -0.124925   0.020029   0.000346   0.000249
     50      -0.029827   0.000629  -0.008566   0.001377   0.000023   0.000017
     51       0.302282  -0.018714   0.328136  -0.051118   0.000706  -0.000228
     52       0.168640  -0.010125   0.175945  -0.026998   0.000358  -0.000131
     53      -0.001130   0.000080  -0.001454   0.000240  -0.000003   0.000001
     54      -0.012489  -0.000950   0.022583  -0.005126  -0.000029  -0.000050
     55      -0.372093  -0.041948   0.867140  -0.159392   0.000160  -0.000613
     56      -0.011618  -0.001319   0.027207  -0.004983   0.000007  -0.000017
     57      -0.003954   0.003159  -0.001758  -0.021256   0.000094  -0.000140
     58      -0.110533   0.071711   0.012489  -0.436786  -0.001498  -0.000755
     59      -0.003437   0.002228   0.000408  -0.013505  -0.000048  -0.000019
     60      -0.054267  -0.091427   0.162454   0.740422  -0.003867   0.002333
     61       0.033888   0.053600  -0.101005  -0.455408   0.002692  -0.001714
     62       0.002266   0.003700  -0.006764  -0.030679   0.000171  -0.000106
     63       0.006977   0.843755   0.059357   0.100606  -0.118055   0.073347
     64      -0.004216  -0.483773  -0.033540  -0.055422   0.069831  -0.044732
     65      -0.000280  -0.033093  -0.002310  -0.003873   0.004698  -0.002963
     66      -0.000050  -0.001858  -0.000228  -0.000151  -0.047233  -0.061291
     67       0.000420   0.023240   0.002175   0.002775   0.642907   0.755846
     68       0.000014   0.000788   0.000077   0.000094   0.021799   0.025758
     69      -0.000901  -0.138925  -0.010113  -0.020490  -0.637199   0.548025
     70      -0.000560  -0.081104  -0.005837  -0.011598  -0.389216   0.328982
     71       0.000001   0.000354   0.000029   0.000064   0.001068  -0.001107


-----------
IR SPECTRUM
-----------

 Mode   freq       eps      Int      T**2         TX        TY        TZ
       cm**-1   L/(mol*cm) km/mol    a.u.
----------------------------------------------------------------------------
  6:     88.71   0.001528    7.72  0.005377  (-0.001057  0.002687 -0.073268)
  7:    132.85   0.000430    2.17  0.001010  (-0.000655  0.000791 -0.031761)
  8:    203.01   0.000075    0.38  0.000115  (-0.000363 -0.000575  0.010720)
  9:    228.90   0.001988   10.05  0.002710  (-0.000260 -0.001830  0.052029)
 10:    233.84   0.012272   62.02  0.016378  (-0.124558 -0.029350  0.001190)
 11:    286.10   0.000056    0.28  0.000061  (-0.000129 -0.000377  0.007792)
 12:    395.64   0.003147   15.91  0.002483  (-0.009469  0.048886  0.001776)
 13:    414.48   0.000458    2.32  0.000345  ( 0.001650  0.001889 -0.018405)
 14:    416.40   0.003945   19.93  0.002956  (-0.046424 -0.028296 -0.000693)
 15:    490.37   0.000060    0.30  0.000038  ( 0.000195  0.000390 -0.006173)
 16:    503.71   0.000574    2.90  0.000355  (-0.004761 -0.018232 -0.000622)
 17:    523.51   0.002274   11.49  0.001356  ( 0.000877 -0.001214  0.036788)
 18:    529.30   0.000774    3.91  0.000457  (-0.013318 -0.016708 -0.000041)
 19:    560.30   0.003082   15.58  0.001717  ( 0.040527 -0.008531 -0.001249)
 20:    575.96   0.000839    4.24  0.000455  (-0.011590 -0.017892 -0.000454)
 21:    580.74   0.000522    2.64  0.000281  ( 0.000177  0.000866 -0.016732)
 22:    663.09   0.000578    2.92  0.000272  ( 0.000152 -0.000301  0.016493)
 23:    680.79   0.002452   12.39  0.001124  (-0.019894 -0.026982 -0.000322)
 24:    727.14   0.001052    5.32  0.000452  ( 0.019964 -0.007275  0.000331)
 25:    732.06   0.020401  103.10  0.008697  ( 0.002456 -0.002713  0.093183)
 26:    766.53   0.003391   17.14  0.001381  ( 0.000752 -0.001102  0.037132)
 27:    792.25   0.002486   12.56  0.000979  (-0.000747  0.000896 -0.031270)
 28:    822.31   0.002678   13.53  0.001016  (-0.023721  0.021246  0.001522)
 29:    846.96   0.000633    3.20  0.000233  (-0.000490  0.000298 -0.015266)
 30:    854.48   0.027103  136.97  0.009898  ( 0.002272 -0.003279  0.099410)
 31:    873.44   0.005413   27.36  0.001934  ( 0.035404  0.026088  0.000250)
 32:    877.24   0.000268    1.36  0.000095  (-0.000106  0.000606 -0.009751)
 33:    952.49   0.000500    2.53  0.000164  (-0.000030  0.000056 -0.012801)
 34:    970.67   0.000001    0.01  0.000000  ( 0.000183  0.000215  0.000512)
 35:    987.06   0.000422    2.13  0.000133  ( 0.000236 -0.000022  0.011544)
 36:   1000.88   0.001186    6.00  0.000370  (-0.001066  0.000510 -0.019196)
 37:   1014.07   0.002525   12.76  0.000777  (-0.018590 -0.020771 -0.000202)
 38:   1046.44   0.020849  105.36  0.006218  ( 0.022469  0.075542  0.002484)
 39:   1060.07   0.012447   62.90  0.003664  ( 0.001065 -0.001815  0.060496)
 40:   1078.03   0.002401   12.13  0.000695  (-0.024014 -0.010875  0.000365)
 41:   1087.32   0.000152    0.77  0.000044  (-0.005382 -0.003814  0.000013)
 42:   1135.36   0.005418   27.38  0.001489  ( 0.032720 -0.020418 -0.001323)
 43:   1165.06   0.017945   90.69  0.004807  (-0.068435  0.010949  0.001836)
 44:   1188.83   0.009501   48.01  0.002494  ( 0.004660 -0.049693 -0.001675)
 45:   1202.77   0.010533   53.23  0.002733  (-0.014320 -0.050261 -0.001225)
 46:   1231.78   0.005717   28.89  0.001448  ( 0.036743 -0.009847 -0.001141)
 47:   1252.04   0.010057   50.83  0.002507  ( 0.006866  0.049574  0.001439)
 48:   1290.85   0.020378  102.98  0.004926  ( 0.016711 -0.068121 -0.002559)
 49:   1294.71   0.039156  197.88  0.009438  (-0.094947 -0.020518  0.001403)
 50:   1353.75   0.035611  179.96  0.008209  ( 0.080808  0.040973 -0.000441)
 51:   1365.79   0.001098    5.55  0.000251  ( 0.015788 -0.001283 -0.000293)
 52:   1401.60   0.005924   29.94  0.001319  ( 0.028837 -0.022040 -0.001279)
 53:   1437.73   0.038238  193.24  0.008300  (-0.086893  0.027222  0.002855)
 54:   1454.92   0.005607   28.33  0.001203  (-0.032836  0.011102  0.001078)
 55:   1458.12   0.074686  377.43  0.015984  ( 0.007100  0.126168  0.003914)
 56:   1497.82   0.027010  136.50  0.005627  (-0.073565 -0.014633  0.001182)
 57:   1538.18   0.004426   22.37  0.000898  (-0.020792 -0.021575 -0.000274)
 58:   1582.69   0.092833  469.14  0.018304  ( 0.122997  0.056348 -0.000978)
 59:   1591.69   0.025328  128.00  0.004966  ( 0.034520  0.061421  0.001257)
 60:   1611.63   0.028599  144.53  0.005538  ( 0.010822 -0.073580 -0.002546)
 61:   1642.74   0.007633   38.57  0.001450  (-0.024067  0.029473  0.001466)
 62:   1663.35   0.045327  229.07  0.008504  (-0.091833 -0.008217  0.001766)
 63:   2726.44   0.166808  842.98  0.019093  (-0.130481  0.045257  0.004356)
 64:   3160.97   0.003091   15.62  0.000305  (-0.010748 -0.013768 -0.000216)
 65:   3174.44   0.000326    1.65  0.000032  (-0.000167  0.005657  0.000184)
 66:   3178.22   0.007052   35.64  0.000692  (-0.022871  0.012982  0.000895)
 67:   3188.03   0.000320    1.62  0.000031  (-0.004594  0.003184  0.000213)
 68:   3189.47   0.004628   23.39  0.000453  (-0.016990 -0.012813 -0.000020)
 69:   3193.53   0.003274   16.55  0.000320  (-0.004907  0.017188  0.000663)
 70:   3218.69   0.000211    1.06  0.000020  ( 0.001349  0.004312  0.000107)
 71:   3230.31   0.000010    0.05  0.000001  ( 0.000223  0.000938  0.000046)

* The epsilon (eps) is given for a Dirac delta lineshape.
** The dipole moment derivative (T) already includes vibrational overlap.

The first frequency considered to be a vibration is 6
The total number of vibrations considered is 66


--------------------------
THERMOCHEMISTRY AT 298.15K
--------------------------

Temperature         ... 298.15 K
Pressure            ... 1.00 atm
Total Mass          ... 195.22 AMU

Throughout the following assumptions are being made:
  (1) The electronic state is orbitally nondegenerate
  (2) There are no thermally accessible electronically excited states
  (3) Hindered rotations indicated by low frequency modes are not
      treated as such but are treated as vibrations and this may
      cause some error
  (4) All equations used are the standard statistical mechanics
      equations for an ideal gas
  (5) All vibrations are strictly harmonic

freq.      88.71  E(vib)   ...       0.47 
freq.     132.85  E(vib)   ...       0.42 
freq.     203.01  E(vib)   ...       0.35 
freq.     228.90  E(vib)   ...       0.32 
freq.     233.84  E(vib)   ...       0.32 
freq.     286.10  E(vib)   ...       0.27 
freq.     395.64  E(vib)   ...       0.20 
freq.     414.48  E(vib)   ...       0.19 
freq.     416.40  E(vib)   ...       0.18 
freq.     490.37  E(vib)   ...       0.15 
freq.     503.71  E(vib)   ...       0.14 
freq.     523.51  E(vib)   ...       0.13 
freq.     529.30  E(vib)   ...       0.13 
freq.     560.30  E(vib)   ...       0.11 
freq.     575.96  E(vib)   ...       0.11 
freq.     580.74  E(vib)   ...       0.11 
freq.     663.09  E(vib)   ...       0.08 
freq.     680.79  E(vib)   ...       0.08 
freq.     727.14  E(vib)   ...       0.06 
freq.     732.06  E(vib)   ...       0.06 
freq.     766.53  E(vib)   ...       0.06 
freq.     792.25  E(vib)   ...       0.05 
freq.     822.31  E(vib)   ...       0.05 
freq.     846.96  E(vib)   ...       0.04 
freq.     854.48  E(vib)   ...       0.04 
freq.     873.44  E(vib)   ...       0.04 
freq.     877.24  E(vib)   ...       0.04 
freq.     952.49  E(vib)   ...       0.03 
freq.     970.67  E(vib)   ...       0.03 
freq.     987.06  E(vib)   ...       0.02 
freq.    1000.88  E(vib)   ...       0.02 
freq.    1014.07  E(vib)   ...       0.02 
freq.    1046.44  E(vib)   ...       0.02 
freq.    1060.07  E(vib)   ...       0.02 
freq.    1078.03  E(vib)   ...       0.02 
freq.    1087.32  E(vib)   ...       0.02 
freq.    1135.36  E(vib)   ...       0.01 
freq.    1165.06  E(vib)   ...       0.01 
freq.    1188.83  E(vib)   ...       0.01 
freq.    1202.77  E(vib)   ...       0.01 
freq.    1231.78  E(vib)   ...       0.01 
freq.    1252.04  E(vib)   ...       0.01 
freq.    1290.85  E(vib)   ...       0.01 
freq.    1294.71  E(vib)   ...       0.01 
freq.    1353.75  E(vib)   ...       0.01 
freq.    1365.79  E(vib)   ...       0.01 
freq.    1401.60  E(vib)   ...       0.00 
freq.    1437.73  E(vib)   ...       0.00 
freq.    1454.92  E(vib)   ...       0.00 
freq.    1458.12  E(vib)   ...       0.00 
freq.    1497.82  E(vib)   ...       0.00 
freq.    1538.18  E(vib)   ...       0.00 
freq.    1582.69  E(vib)   ...       0.00 
freq.    1591.69  E(vib)   ...       0.00 
freq.    1611.63  E(vib)   ...       0.00 
freq.    1642.74  E(vib)   ...       0.00 
freq.    1663.35  E(vib)   ...       0.00 
freq.    2726.44  E(vib)   ...       0.00 
freq.    3160.97  E(vib)   ...       0.00 
freq.    3174.44  E(vib)   ...       0.00 
freq.    3178.22  E(vib)   ...       0.00 
freq.    3188.03  E(vib)   ...       0.00 
freq.    3189.47  E(vib)   ...       0.00 
freq.    3193.53  E(vib)   ...       0.00 
freq.    3218.69  E(vib)   ...       0.00 
freq.    3230.31  E(vib)   ...       0.00 

------------
INNER ENERGY
------------

The inner energy is: U= E(el) + E(ZPE) + E(vib) + E(rot) + E(trans)
    E(el)   - is the total energy from the electronic structure calculation
              = E(kin-el) + E(nuc-el) + E(el-el) + E(nuc-nuc)
    E(ZPE)  - the the zero temperature vibrational energy from the frequency calculation
    E(vib)  - the the finite temperature correction to E(ZPE) due to population
              of excited vibrational states
    E(rot)  - is the rotational thermal energy
    E(trans)- is the translational thermal energy

Summary of contributions to the inner energy U:
Electronic energy                ...   -631.03184784 Eh
Zero point energy                ...      0.18594092 Eh     116.68 kcal/mol
Thermal vibrational correction   ...      0.00718929 Eh       4.51 kcal/mol
Thermal rotational correction    ...      0.00141627 Eh       0.89 kcal/mol
Thermal translational correction ...      0.00141627 Eh       0.89 kcal/mol
-----------------------------------------------------------------------
Total thermal energy                   -630.83588509 Eh


Summary of corrections to the electronic energy:
(perhaps to be used in another calculation)
Total thermal correction                  0.01002184 Eh       6.29 kcal/mol
Non-thermal (ZPE) correction              0.18594092 Eh     116.68 kcal/mol
-----------------------------------------------------------------------
Total correction                          0.19596275 Eh     122.97 kcal/mol


--------
ENTHALPY
--------

The enthalpy is H = U + kB*T
                kB is Boltzmann's constant
Total free energy                 ...   -630.83588509 Eh 
Thermal Enthalpy correction       ...      0.00094421 Eh       0.59 kcal/mol
-----------------------------------------------------------------------
Total Enthalpy                    ...   -630.83494088 Eh


Note: Only C1 symmetry has been detected, increase convergence thresholds 
      if your molecule has a higher symmetry. Symmetry factor of 1.0 is   
      used for the rotational entropy correction. 
 

Note: Rotational entropy computed according to Herzberg 
Infrared and Raman Spectra, Chapter V,1, Van Nostrand Reinhold, 1945 
Point Group:  C1, Symmetry Number:   1  
Rotational constants in cm-1:     0.039794     0.018816     0.012775 

Vibrational entropy computed according to the QRRHO of S. Grimme
Chem.Eur.J. 2012 18 9955


-------
ENTROPY
-------

The entropy contributions are T*S = T*(S(el)+S(vib)+S(rot)+S(trans))
     S(el)   - electronic entropy
     S(vib)  - vibrational entropy
     S(rot)  - rotational entropy
     S(trans)- translational entropy
The entropies will be listed as multiplied by the temperature to get
units of energy

Electronic entropy                ...      0.00000000 Eh      0.00 kcal/mol
Vibrational entropy               ...      0.01141814 Eh      7.16 kcal/mol
Rotational entropy                ...      0.01496691 Eh      9.39 kcal/mol
Translational entropy             ...      0.01981867 Eh     12.44 kcal/mol
-----------------------------------------------------------------------
Final entropy term                ...      0.04620372 Eh     28.99 kcal/mol

In case the symmetry of your molecule has not been determined correctly
or in case you have a reason to use a different symmetry number we print 
out the resulting rotational entropy values for sn=1,12 :
 --------------------------------------------------------
|  sn= 1 | S(rot)=       0.01496691 Eh      9.39 kcal/mol|
|  sn= 2 | S(rot)=       0.01431246 Eh      8.98 kcal/mol|
|  sn= 3 | S(rot)=       0.01392962 Eh      8.74 kcal/mol|
|  sn= 4 | S(rot)=       0.01365800 Eh      8.57 kcal/mol|
|  sn= 5 | S(rot)=       0.01344731 Eh      8.44 kcal/mol|
|  sn= 6 | S(rot)=       0.01327517 Eh      8.33 kcal/mol|
|  sn= 7 | S(rot)=       0.01312962 Eh      8.24 kcal/mol|
|  sn= 8 | S(rot)=       0.01300354 Eh      8.16 kcal/mol|
|  sn= 9 | S(rot)=       0.01289233 Eh      8.09 kcal/mol|
|  sn=10 | S(rot)=       0.01279286 Eh      8.03 kcal/mol|
|  sn=11 | S(rot)=       0.01270287 Eh      7.97 kcal/mol|
|  sn=12 | S(rot)=       0.01262071 Eh      7.92 kcal/mol|
 --------------------------------------------------------


-------------------
GIBBS FREE ENERGY
-------------------

The Gibbs free energy is G = H - T*S

Total enthalpy                    ...   -630.83494088 Eh 
Total entropy correction          ...     -0.04620372 Eh    -28.99 kcal/mol
-----------------------------------------------------------------------
Final Gibbs free energy         ...   -630.88114460 Eh

For completeness - the Gibbs free energy minus the electronic energy
G-E(el)                           ...      0.15070324 Eh     94.57 kcal/mol


Timings for individual modules:

Sum of individual times         ...     5059.952 sec (=  84.333 min)
GTO integral calculation        ...        1.619 sec (=   0.027 min)   0.0 %
SCF iterations                  ...      396.325 sec (=   6.605 min)   7.8 %
Analytical frequency calculation...     4662.008 sec (=  77.700 min)  92.1 %
                             ****ORCA TERMINATED NORMALLY****
TOTAL RUN TIME: 0 days 1 hours 24 minutes 20 seconds 991 msec
