
                                 *****************
                                 * O   R   C   A *
                                 *****************

                                            #,                                       
                                            ###                                      
                                            ####                                     
                                            #####                                    
                                            ######                                   
                                           ########,                                 
                                     ,,################,,,,,                         
                               ,,#################################,,                 
                          ,,##########################################,,             
                       ,#########################################, ''#####,          
                    ,#############################################,,   '####,        
                  ,##################################################,,,,####,       
                ,###########''''           ''''###############################       
              ,#####''   ,,,,##########,,,,          '''####'''          '####       
            ,##' ,,,,###########################,,,                        '##       
           ' ,,###''''                  '''############,,,                           
         ,,##''                                '''############,,,,        ,,,,,,###''
      ,#''                                            '''#######################'''  
     '                                                          ''''####''''         
             ,#######,   #######,   ,#######,      ##                                
            ,#'     '#,  ##    ##  ,#'     '#,    #''#        ,####,   ,####,        
            ##       ##  ##   ,#'  ##            #'  '#       #'       #'  '#        
            ##       ##  #######   ##           ,######,      #####,   #    #        
            '#,     ,#'  ##    ##  '#,     ,#' ,#      #,     #,   #   #,  ,#        
             '#######'   ##     ##  '#######'  #'      '#     '####' # '####'        



                #########################################################
                #                        -***-                          #
                #          Department of theory and spectroscopy        #
                #                                                       #
                #                      Frank Neese                      #
                #                                                       #
                #     Directorship, Architecture, Infrastructure        #
                #                    SHARK, DRIVERS                     #
                #        Core code/Algorithms in most modules           #
                #                                                       #
                #        Max Planck Institute fuer Kohlenforschung      #
                #                Kaiser Wilhelm Platz 1                 #
                #                 D-45470 Muelheim/Ruhr                 #
                #                      Germany                          #
                #                                                       #
                #                  All rights reserved                  #
                #                        -***-                          #
                #########################################################


                         Program Version 6.0.1  -  RELEASE   -


 With contributions from (in alphabetic order):
[Max-Planck-Institut fuer Kohlenforschung]                               
  Daniel Aravena         : Magnetic Suceptibility                        
  Michael Atanasov       : Ab Initio Ligand Field Theory (pilot matlab implementation)
  Alexander A. Auer      : GIAO ZORA, VPT2 properties, NMR spectrum      
  Ute Becker             : All parallelization in ORCA, NUMFREQ, NUMCALC 
  Giovanni Bistoni       : ED, misc. LED, open-shell LED, HFLD           
  Martin Brehm           : Molecular dynamics                            
  Dmytro Bykov           : pre 5.0 version of the SCF Hessian            
  Marcos Casanova-Páez   : Triplet and SCS-CIS(D). UHF-(DLPNO)-IP/EA/STEOM-CCSD. UHF-CVS-IP/STEOM-CCSD   
  Vijay G. Chilkuri      : MRCI spin determinant printing, contributions to CSF-ICE 
  Pauline Colinet        : FMM embedding                                 
  Dipayan Datta          : RHF DLPNO-CCSD density                        
  Achintya Kumar Dutta   : EOM-CC, STEOM-CC                              
  Nicolas Foglia         : Exact transition moments, OPA infrastructure, MCD improvements    
  Dmitry Ganyushin       : Spin-Orbit,Spin-Spin,Magnetic field MRCI      
  Miquel Garcia-Rates    : C-PCM and meta-GGA Hessian, CCSD/C-PCM, Gaussian charge scheme 
  Tiago L. C. Gouveia    : GS-ROHF, GS-ROCIS                             
  Yang Guo               : DLPNO-NEVPT2, F12-NEVPT2, CIM, IAO-localization        
  Andreas Hansen         : Spin unrestricted coupled pair/coupled cluster methods 
  Ingolf Harden          : AUTO-CI MPn and infrastructure                
  Benjamin Helmich-Paris : MC-RPA, TRAH-(SCF,CASSCF), AVAS, COSX integrals, SCF dyn. polar. 
  Lee Huntington         : MR-EOM, pCC                                   
  Robert Izsak           : Overlap fitted RIJCOSX, COSX-SCS-MP3, EOM     
  Riya Kayal             : Wick's Theorem for AUTO-CI, AUTO-CI UHF-CCSDT 
  Emily Kempfer          : AUTO-CI, RHF CISDT and CCSDT                  
  Christian Kollmar      : KDIIS, OOCD, Brueckner-CCSD(T), CCSD density, CASPT2, CASPT2-K, improved NEVPT2 
  Axel Koslowski         : Symmetry handling                             
  Simone Kossmann        : meta-GGA functionals, TD-DFT gradient, OOMP2, (MP2 Hessian; deprecated post 5.0) 
  Lucas Lang             : DCDCAS                                        
  Marvin Lechner         : AUTO-CI (C++ implementation), FIC-MRCC        
  Spencer Leger          : CASSCF response                               
  Dagmar Lenk            : GEPOL surface, SMD, ORCA-2-JSON               
  Dimitrios Liakos       : Extrapolation schemes; Compound Job, initial MDCI parallelization 
  Dimitrios Manganas     : Further ROCIS development; embedding schemes. LFT, Crystal Embedding 
  Dimitrios Pantazis     : SARC Basis sets                               
  Anastasios Papadopoulos: AUTO-CI, single reference methods and gradients 
  Taras Petrenko         : pre 6.0 DFT Hessian and TD-DFT gradient, (ASA, deprecated), ECA, 1-Electron XAS/XES, NRVS 
  Peter Pinski           : DLPNO-MP2, DLPNO-MP2 Gradient                 
  Christoph Reimann      : Effective Core Potentials                     
  Marius Retegan         : Local ZFS, SOC                                
  Christoph Riplinger    : Optimizer, TS searches, QM/MM, DLPNO-CCSD(T), (RO)-DLPNO pert. Triples 
  Michael Roemelt        : Original ROCIS implementation                 
  Masaaki Saitow         : Open-shell DLPNO-CCSD energy and density      
  Barbara Sandhoefer     : DKH picture change effects                    
  Kantharuban Sivalingam : CASSCF convergence/infrastructure, NEVPT2 and variants, FIC-MRCI 
  Bernardo de Souza      : ESD, SOC TD-DFT                               
  Georgi L. Stoychev     : AutoAux, RI-MP2 NMR, DLPNO-MP2 response, X2C  
  Van Anh Tran           : RI-MP2 g-tensors                              
  Willem Van den Heuvel  : Paramagnetic NMR                              
  Zikuan Wang            : NOTCH, Electric field optimization            
  Frank Wennmohs         : Technical directorship and infrastructure     
  Hang Xu                : AUTO-CI-Response properties                   
                                                                         
[FACCTs GmbH]                                                            
  Markus Bursch, Miquel Garcia-Rates, Christoph Riplinger, Bernardo de Souza, Georgi L. Stoychev 
                                                                 
  APM, Basis sets (HGBS, AHGBS, def-TZVP (Ac-Lr), def2-XVPD (La-Lu)), CI-OPT, improved COSX, DLPNO-Multilevel,           
  DOCKER, DRACO, updates on ESD, GOAT, IRC, LR-CPCM, MBIS, meta-GGA TD-DFT gradient, ML-optimized integration grids, 
  MM, NACMEs, nearIR, NEB, NEB-TS, NL-DFT gradient (VV10), 2- and 3-layer-ONIOM, interface openCOSMO-RS, QMMM,   
  Crystal-QMMM, SF, symmetry and pop. for TD-DFT, r2SCAN hybrids, SOLVATOR                                   
                                                                         
[Other institutions]                                                     
  V. Asgeirsson          : NEB                                           
  Christoph Bannwarth    : sTDA-DFT, sTD-DFT, PBEh-3c, B97-3c, D3        
  Sebastian Ehlert       : rSCAN, r2SCAN, r2SCAN-3c, D4, dhf basis sets  
  Marvin Friede          : D4 for Fr, Ra, Ac-Lr                          
  Lars Goerigk           : TD-DFT with DH, B97 family of functionals     
  Stefan Grimme          : VdW corrections, initial TS optimization, DFT functionals, gCP, sTDA/sTD-DF 
  Waldemar Hujo          : DFT-NL                                        
  H. Jonsson             : NEB                                           
  Holger Kruse           : gCP                                           
  Marcel Mueller         : wB97X-3c, vDZP basis set                      
  Hagen Neugebauer       : wr2SCAN                                       
  Tobias Risthaus        : range-separated hybrid DFT                    
  Lukas Wittmann         : regularized MP2, r2SCAN double-hybrids, wr2SCAN        
                                                                         
We gratefully acknowledge several colleagues who have allowed us to      
interface, adapt or use parts of their codes:                            
  Ed Valeev, F. Pavosevic, A. Kumar             : LibInt (2-el integral package), F12 methods 
  Garnet Chan, S. Sharma, J. Yang, R. Olivares  : DMRG                   
  Ulf Ekstrom                                   : XCFun DFT Library      
  Mihaly Kallay                                 : mrcc  (arbitrary order and MRCC methods)
  Frank Weinhold                                : gennbo (NPA and NBO analysis)           
  Simon Mueller                                 : openCOSMO-RS                            
  Christopher J. Cramer and Donald G. Truhlar   : smd solvation model                     
  S Lehtola, MJT Oliveira, MAL Marques          : LibXC Library                           
  Liviu Ungur et al                             : ANISO software                          


 Your calculation uses the libint2 library for the computation of 2-el integrals
 For citations please refer to: http://libint.valeyev.net

 Your ORCA version has been built with support for libXC version: 6.2.2
 For citations please refer to: https://libxc.gitlab.io

 This ORCA versions uses:
   CBLAS   interface :  Fast vector & matrix operations
   LAPACKE interface :  Fast linear algebra routines
   SCALAPACK package :  Parallel linear algebra routines
   Shared memory     :  Shared parallel matrices
   BLAS/LAPACK       :  OpenBLAS 0.3.27  USE64BITINT DYNAMIC_ARCH NO_AFFINITY Zen SINGLE_THREADED
        Core in use  :  Zen
   Copyright (c) 2011-2014, The OpenBLAS Project


XCFun DFT library Copyright 2009-2010 Ulf Ekstrom and contributors.
See http://admol.org/xcfun for more information.
This is free software; see the source code for copying conditions.
There is ABSOLUTELY NO WARRANTY; not even for MERCHANTABILITY or FITNESS FOR A PARTICULAR PURPOSE.
For details see the documentation.
Scientific users of this library should cite U. Ekstrom, L. Visscher, R. Bast, A. J. Thorvaldsen and K. Ruud;
J.Chem.Theor.Comp. 2010, DOI: 10.1021/ct100117s
XCFun Version 0.99 

================================================================================

----- Orbital basis set information -----
Your calculation utilizes the basis: def2-TZVP(-f)
   F. Weigend and R. Ahlrichs, Phys. Chem. Chem. Phys. 7, 3297 (2005).

----- AuxJ basis set information -----
Your calculation utilizes the auxiliary basis: def2/J
   F. Weigend, Phys. Chem. Chem. Phys. 8, 1057 (2006).

----- AuxC basis set information -----
Your calculation utilizes the auxiliary basis: def2-TZVP/C
  H-La, Hf-Rn : A. Hellweg, C. Hattig, S. Hofener and W. Klopper, Theor. Chem. Acc. 117, 587 (2007).
        Ce-Lu : J. Chmela and M. E. Harding, Mol. Phys. (2018).

================================================================================
                                        WARNINGS
                       Please study these warnings very carefully!
================================================================================


WARNING: Geometry Optimization
  ===> : Switching off AutoStart
         For restart on a previous wavefunction, please use MOREAD

================================================================================
                                       INPUT FILE
================================================================================
NAME = hbq-gs.inp
|  1> ! CAM-B3LYP VERYTIGHTOPT FREQ Def2-TZVP(-f) Def2-TZVP/C Def2/J RIJCOSX TightSCF CPCM(Water) AllPop SOSCF
|  2> %pal nprocs 128 end
|  3> 
|  4> * xyz 0 1 
|  5>   C          -3.34673808040941     -0.78677132721976     -0.32404116597531
|  6>   C          -2.89662896391278     -1.71128159077891     -1.27143214911193
|  7>   C          -1.56346144415333     -1.74445166902682     -1.60197345082992
|  8>   C          -2.47082837687529      0.09169704384375      0.27457096101722
|  9>   C          -1.08607342375931      0.09621955520191     -0.03232671933869
| 10>   O          -3.01753331122978      0.89719074487669      1.26876612317815
| 11>   C          -0.64789305646612     -0.86076091472977     -0.99738453096799
| 12>   C           0.73605020953817     -0.93987366152830     -1.35736369882479
| 13>   C           1.65916708250390     -0.12587865031823     -0.79720695573077
| 14>   C          -0.09092063789578      0.98019887915765      0.56004552068688
| 15>   C           1.27106669455049      0.84917280609934      0.17112121405269
| 16>   N          -0.46719160765020      1.91244543904751      1.46442709178227
| 17>   C           0.44869912029120      2.70166895651181      1.99764477101664
| 18>   C           1.81235505377979      2.63929313357752      1.68280111447225
| 19>   C           2.21807194075133      1.70590392881037      0.76069102491168
| 20>   C          -3.33269051189299      2.19100807188900      0.94243157771232
| 21>   O          -3.24308743066879      2.61771785700118     -0.19902969788003
| 22>   N          -3.76375901457772      2.88585712175861      2.01233676322835
| 23>   C          -3.90323304373896      2.32286857976469      3.35066957263160
| 24>   C          -4.28313526580610      4.23458819563255      1.83012998537635
| 25>   H          -5.36008994123276      4.25716826148200      2.01833535594631
| 26>   H          -4.09039203097898      4.56553684279284      0.81549106543041
| 27>   H          -3.79455771950924      4.91294301503646      2.53187907178411
| 28>   H          -3.27817492033880      1.44491913981881      3.46365306681952
| 29>   H          -4.94361291481539      2.05308894019435      3.55404948402173
| 30>   H          -3.59328939637531      3.07372668201741      4.07848340967325
| 31>   H          -1.19345006266831     -2.45586760129821     -2.32950922385201
| 32>   H          -4.39015322226097     -0.74649799069856     -0.04059677163635
| 33>   H          -3.59818513222498     -2.39321663424608     -1.73397167449844
| 34>   H           1.02642261496276     -1.67920339667771     -2.09354833302536
| 35>   H           2.70472089937995     -0.19557668617344     -1.07180883831884
| 36>   H           0.09362457867243      3.43339523188854      2.71669681734327
| 37>   H           2.51359088484531      3.31402930369065      2.15511727183148
| 38>   H           3.25946042545769      1.61658238532610      0.47523194139294
| 39> *
| 40> 
| 41>                          ****END OF INPUT****
================================================================================

                       *****************************
                       * Geometry Optimization Run *
                       *****************************

Geometry optimization settings:
Update method            Update   .... BFGS
Choice of coordinates    CoordSys .... (2022) Redundant Internals
Initial Hessian          InHess   .... Almloef's Model
Max. no of cycles        MaxIter  .... 102

Convergence Tolerances:
Energy Change            TolE     ....  2.0000e-07 Eh
Max. Gradient            TolMAXG  ....  3.0000e-05 Eh/bohr
RMS Gradient             TolRMSG  ....  8.0000e-06 Eh/bohr
Max. Displacement        TolMAXD  ....  2.0000e-04 bohr
RMS Displacement         TolRMSD  ....  1.0000e-04 bohr
Strict Convergence                .... False

------------------------------------------------------------------------------
                        ORCA OPTIMIZATION COORDINATE SETUP
------------------------------------------------------------------------------

The optimization will be done in redundant internal coordinates (2022)
Making redundant internal coordinates   ...  (2022 redundants) done
Evaluating the initial hessian          ...  (Almloef) done
Evaluating the coordinates              ...  done
Calculating the B-matrix                .... done
Calculating the G-matrix                .... done
Diagonalizing the G-matrix              .... done
Small eigenvalue found = 3.733e-03
Small eigenvalue found = 5.511e-03
Small eigenvalue found = 1.342e-02
Small eigenvalue found = 2.447e-02
The first mode is                       ....   77
The number of degrees of freedom        ....   96

    -----------------------------------------------------------------
                    Redundant Internal Coordinates


    -----------------------------------------------------------------
         Definition                    Initial Value    Approx d2E/dq
    -----------------------------------------------------------------
      1. B(C   1,C   0)                  1.3982         0.606332   
      2. B(C   2,C   1)                  1.3739         0.662783   
      3. B(C   3,C   0)                  1.3774         0.654370   
      4. B(C   4,C   3)                  1.4184         0.562973   
      5. B(O   5,C   3)                  1.3914         0.556626   
      6. B(C   6,C   4)                  1.4280         0.543414   
      7. B(C   6,C   2)                  1.4088         0.583113   
      8. B(C   7,C   6)                  1.4322         0.535108   
      9. B(C   8,C   7)                  1.3522         0.717809   
     10. B(C   9,C   4)                  1.4569         0.488598   
     11. B(C  10,C   9)                  1.4225         0.554529   
     12. B(C  10,C   8)                  1.4279         0.543514   
     13. B(N  11,C   9)                  1.3522         0.642850   
     14. B(C  12,N  11)                  1.3214         0.720031   
     15. B(C  13,C  12)                  1.4009         0.600230   
     16. B(C  14,C  13)                  1.3734         0.664189   
     17. B(C  14,C  10)                  1.4066         0.587929   
     18. B(C  15,O   5)                  1.3711         0.599939   
     19. B(O  16,C  15)                  1.2219         1.037685   
     20. B(N  17,C  15)                  1.3466         0.656322   
     21. B(C  18,N  17)                  1.4586         0.434923   
     22. B(C  19,N  17)                  1.4567         0.437957   
     23. B(H  20,C  19)                  1.0935         0.355487   
     24. B(H  21,C  19)                  1.0845         0.367432   
     25. B(H  22,C  19)                  1.0915         0.358150   
     26. B(H  23,C  18)                  1.0836         0.368623   
     27. B(H  24,C  18)                  1.0939         0.355027   
     28. B(H  25,C  18)                  1.0907         0.359212   
     29. B(H  26,C   2)                  1.0827         0.369831   
     30. B(H  27,C   0)                  1.0820         0.370869   
     31. B(H  28,C   1)                  1.0822         0.370566   
     32. B(H  29,C   7)                  1.0830         0.369478   
     33. B(H  30,C   8)                  1.0833         0.369131   
     34. B(H  31,C  12)                  1.0856         0.365962   
     35. B(H  32,C  13)                  1.0817         0.371244   
     36. B(H  33,C  14)                  1.0835         0.368813   
     37. A(C   1,C   0,C   3)          120.7619         0.436548   
     38. A(C   3,C   0,H  27)          118.4021         0.357939   
     39. A(C   1,C   0,H  27)          120.8355         0.353338   
     40. A(C   2,C   1,H  28)          120.7301         0.358668   
     41. A(C   0,C   1,C   2)          119.4298         0.437554   
     42. A(C   0,C   1,H  28)          119.8400         0.353289   
     43. A(C   1,C   2,H  26)          120.6048         0.358547   
     44. A(C   1,C   2,C   6)          120.8120         0.434487   
     45. A(C   6,C   2,H  26)          118.5822         0.350846   
     46. A(C   4,C   3,O   5)          122.4354         0.415761   
     47. A(C   0,C   3,C   4)          121.9272         0.430760   
     48. A(C   0,C   3,O   5)          115.4589         0.427079   
     49. A(C   3,C   4,C   9)          125.5083         0.408893   
     50. A(C   3,C   4,C   6)          116.3385         0.416686   
     51. A(C   6,C   4,C   9)          118.1511         0.406343   
     52. A(C   3,O   5,C  15)          117.8092         0.417771   
     53. A(C   4,C   6,C   7)          120.2253         0.412942   
     54. A(C   2,C   6,C   7)          119.0444         0.418153   
     55. A(C   2,C   6,C   4)          120.7289         0.419303   
     56. A(C   6,C   7,H  29)          117.8823         0.345748   
     57. A(C   6,C   7,C   8)          121.4866         0.434006   
     58. A(C   8,C   7,H  29)          120.6305         0.363398   
     59. A(C   7,C   8,H  30)          121.0084         0.363339   
     60. A(C  10,C   8,H  30)          118.5659         0.346601   
     61. A(C   7,C   8,C  10)          120.4256         0.435225   
     62. A(C   4,C   9,C  10)          119.1401         0.407801   
     63. A(C  10,C   9,N  11)          120.8495         0.425435   
     64. A(C   4,C   9,N  11)          120.0102         0.415933   
     65. A(C   9,C  10,C  14)          118.2904         0.421438   
     66. A(C   8,C  10,C  14)          121.1425         0.419932   
     67. A(C   8,C  10,C   9)          120.5667         0.415580   
     68. A(C   9,N  11,C  12)          119.2601         0.442986   
     69. A(N  11,C  12,H  31)          116.3050         0.360741   
     70. A(N  11,C  12,C  13)          123.8769         0.440424   
     71. A(C  13,C  12,H  31)          119.8178         0.351940   
     72. A(C  12,C  13,H  32)          120.3394         0.352794   
     73. A(C  12,C  13,C  14)          117.9513         0.436924   
     74. A(C  14,C  13,H  32)          121.7088         0.358909   
     75. A(C  10,C  14,H  33)          119.1089         0.351170   
     76. A(C  10,C  14,C  13)          119.7689         0.435297   
     77. A(C  13,C  14,H  33)          121.1222         0.358508   
     78. A(O  16,C  15,N  17)          125.8380         0.475320   
     79. A(O   5,C  15,N  17)          111.8025         0.430262   
     80. A(O   5,C  15,O  16)          122.3465         0.467545   
     81. A(C  18,N  17,C  19)          115.9787         0.378538   
     82. A(C  15,N  17,C  19)          119.5054         0.406800   
     83. A(C  15,N  17,C  18)          124.0871         0.406300   
     84. A(H  24,C  18,H  25)          108.4212         0.290080   
     85. A(H  23,C  18,H  25)          108.9214         0.291798   
     86. A(N  17,C  18,H  25)          108.6259         0.330419   
     87. A(H  23,C  18,H  24)          109.2331         0.291260   
     88. A(N  17,C  18,H  24)          110.8999         0.329780   
     89. A(N  17,C  18,H  23)          110.6847         0.331836   
     90. A(H  21,C  19,H  22)          109.4084         0.291513   
     91. A(H  20,C  19,H  22)          108.5035         0.290004   
     92. A(N  17,C  19,H  22)          109.5977         0.330637   
     93. A(H  20,C  19,H  21)          109.2538         0.291172   
     94. A(N  17,C  19,H  21)          109.6451         0.332041   
     95. A(N  17,C  19,H  20)          110.4098         0.330230   
     96. D(H  28,C   1,C   0,C   3)   -179.8733         0.025373   
     97. D(C   2,C   1,C   0,C   3)      0.2842         0.025373   
     98. D(H  28,C   1,C   0,H  27)      0.3651         0.025373   
     99. D(C   2,C   1,C   0,H  27)   -179.4773         0.025373   
    100. D(C   6,C   2,C   1,C   0)      0.0710         0.030672   
    101. D(H  26,C   2,C   1,C   0)    179.6952         0.030672   
    102. D(C   6,C   2,C   1,H  28)   -179.7700         0.030672   
    103. D(H  26,C   2,C   1,H  28)     -0.1458         0.030672   
    104. D(O   5,C   3,C   0,C   1)   -175.5779         0.029843   
    105. D(C   4,C   3,C   0,H  27)    179.4431         0.029843   
    106. D(C   4,C   3,C   0,C   1)     -0.3241         0.029843   
    107. D(O   5,C   3,C   0,H  27)      4.1894         0.029843   
    108. D(C   6,C   4,C   3,O   5)    174.9297         0.021719   
    109. D(C   9,C   4,C   3,C   0)   -179.4506         0.021719   
    110. D(C   9,C   4,C   3,O   5)     -4.5289         0.021719   
    111. D(C   6,C   4,C   3,C   0)      0.0079         0.021719   
    112. D(C  15,O   5,C   3,C   4)     83.8240         0.022434   
    113. D(C  15,O   5,C   3,C   0)   -100.9489         0.022434   
    114. D(C   7,C   6,C   4,C   9)      0.2611         0.020185   
    115. D(C   7,C   6,C   4,C   3)   -179.2391         0.020185   
    116. D(C   2,C   6,C   4,C   9)    179.8437         0.020185   
    117. D(C   2,C   6,C   4,C   3)      0.3436         0.020185   
    118. D(C   7,C   6,C   2,H  26)     -0.4347         0.023372   
    119. D(C   7,C   6,C   2,C   1)    179.1969         0.023372   
    120. D(C   4,C   6,C   2,H  26)    179.9777         0.023372   
    121. D(C   4,C   6,C   2,C   1)     -0.3906         0.023372   
    122. D(H  29,C   7,C   6,C   4)   -179.9727         0.019555   
    123. D(H  29,C   7,C   6,C   2)      0.4377         0.019555   
    124. D(C   8,C   7,C   6,C   4)      0.3156         0.019555   
    125. D(C   8,C   7,C   6,C   2)   -179.2741         0.019555   
    126. D(C  10,C   8,C   7,C   6)     -0.4187         0.036447   
    127. D(H  30,C   8,C   7,H  29)      0.0036         0.036447   
    128. D(H  30,C   8,C   7,C   6)    179.7075         0.036447   
    129. D(C  10,C   8,C   7,H  29)    179.8774         0.036447   
    130. D(N  11,C   9,C   4,C   6)    179.1092         0.016255   
    131. D(N  11,C   9,C   4,C   3)     -1.4411         0.016255   
    132. D(C  10,C   9,C   4,C   6)     -0.7193         0.016255   
    133. D(C  10,C   9,C   4,C   3)    178.7303         0.016255   
    134. D(C  14,C  10,C   9,N  11)      0.5812         0.021048   
    135. D(C  14,C  10,C   9,C   4)   -179.5918         0.021048   
    136. D(C   8,C  10,C   9,N  11)   -179.1903         0.021048   
    137. D(C   8,C  10,C   9,C   4)      0.6368         0.021048   
    138. D(C  14,C  10,C   8,H  30)      0.0468         0.020193   
    139. D(C  14,C  10,C   8,C   7)   -179.8301         0.020193   
    140. D(C   9,C  10,C   8,H  30)    179.8117         0.020193   
    141. D(C   9,C  10,C   8,C   7)     -0.0652         0.020193   
    142. D(C  12,N  11,C   9,C  10)     -0.5313         0.030487   
    143. D(C  12,N  11,C   9,C   4)    179.6431         0.030487   
    144. D(H  31,C  12,N  11,C   9)    179.9109         0.039041   
    145. D(C  13,C  12,N  11,C   9)      0.0846         0.039041   
    146. D(H  32,C  13,C  12,H  31)      0.2210         0.024838   
    147. D(H  32,C  13,C  12,N  11)   -179.9585         0.024838   
    148. D(C  14,C  13,C  12,H  31)   -179.5157         0.024838   
    149. D(C  14,C  13,C  12,N  11)      0.3047         0.024838   
    150. D(H  33,C  14,C  13,H  32)     -0.0626         0.030812   
    151. D(H  33,C  14,C  13,C  12)    179.6703         0.030812   
    152. D(C  10,C  14,C  13,H  32)   -179.9684         0.030812   
    153. D(C  10,C  14,C  13,C  12)     -0.2354         0.030812   
    154. D(H  33,C  14,C  10,C   9)    179.9086         0.023779   
    155. D(H  33,C  14,C  10,C   8)     -0.3213         0.023779   
    156. D(C  13,C  14,C  10,C   9)     -0.1837         0.023779   
    157. D(C  13,C  14,C  10,C   8)    179.5864         0.023779   
    158. D(O  16,C  15,O   5,C   3)      5.5673         0.026287   
    159. D(N  17,C  15,O   5,C   3)   -175.6760         0.026287   
    160. D(C  19,N  17,C  15,O  16)      5.4145         0.035214   
    161. D(C  19,N  17,C  15,O   5)   -173.2898         0.035214   
    162. D(C  18,N  17,C  15,O  16)    177.5869         0.035214   
    163. D(C  18,N  17,C  15,O   5)     -1.1174         0.035214   
    164. D(H  25,C  18,N  17,C  15)    141.6476         0.016128   
    165. D(H  24,C  18,N  17,C  19)     73.1263         0.016128   
    166. D(H  24,C  18,N  17,C  15)    -99.2971         0.016128   
    167. D(H  23,C  18,N  17,C  19)   -165.4687         0.016128   
    168. D(H  23,C  18,N  17,C  15)     22.1079         0.016128   
    169. D(H  22,C  19,N  17,C  15)   -129.6378         0.016355   
    170. D(H  21,C  19,N  17,C  18)    177.6780         0.016355   
    171. D(H  21,C  19,N  17,C  15)     -9.5299         0.016355   
    172. D(H  20,C  19,N  17,C  18)    -61.8968         0.016355   
    173. D(H  20,C  19,N  17,C  15)    110.8953         0.016355   
    -----------------------------------------------------------------

Number of atoms                         .... 34
Number of degrees of freedom            .... 173


         *************************************************************
         *                GEOMETRY OPTIMIZATION CYCLE   1            *
         *************************************************************
---------------------------------
CARTESIAN COORDINATES (ANGSTROEM)
---------------------------------
  C     -3.346738   -0.786771   -0.324041
  C     -2.896629   -1.711282   -1.271432
  C     -1.563461   -1.744452   -1.601973
  C     -2.470828    0.091697    0.274571
  C     -1.086073    0.096220   -0.032327
  O     -3.017533    0.897191    1.268766
  C     -0.647893   -0.860761   -0.997385
  C      0.736050   -0.939874   -1.357364
  C      1.659167   -0.125879   -0.797207
  C     -0.090921    0.980199    0.560046
  C      1.271067    0.849173    0.171121
  N     -0.467192    1.912445    1.464427
  C      0.448699    2.701669    1.997645
  C      1.812355    2.639293    1.682801
  C      2.218072    1.705904    0.760691
  C     -3.332691    2.191008    0.942432
  O     -3.243087    2.617718   -0.199030
  N     -3.763759    2.885857    2.012337
  C     -3.903233    2.322869    3.350670
  C     -4.283135    4.234588    1.830130
  H     -5.360090    4.257168    2.018335
  H     -4.090392    4.565537    0.815491
  H     -3.794558    4.912943    2.531879
  H     -3.278175    1.444919    3.463653
  H     -4.943613    2.053089    3.554049
  H     -3.593289    3.073727    4.078483
  H     -1.193450   -2.455868   -2.329509
  H     -4.390153   -0.746498   -0.040597
  H     -3.598185   -2.393217   -1.733972
  H      1.026423   -1.679203   -2.093548
  H      2.704721   -0.195577   -1.071809
  H      0.093625    3.433395    2.716697
  H      2.513591    3.314029    2.155117
  H      3.259460    1.616582    0.475232

----------------------------
CARTESIAN COORDINATES (A.U.)
----------------------------
  NO LB      ZA    FRAG     MASS         X           Y           Z
   0 C     6.0000    0    12.011   -6.324418   -1.486782   -0.612349
   1 C     6.0000    0    12.011   -5.473835   -3.233854   -2.402659
   2 C     6.0000    0    12.011   -2.954514   -3.296536   -3.027291
   3 C     6.0000    0    12.011   -4.669189    0.173282    0.518864
   4 C     6.0000    0    12.011   -2.052381    0.181829   -0.061089
   5 O     8.0000    0    15.999   -5.702312    1.695445    2.397621
   6 C     6.0000    0    12.011   -1.224340   -1.626602   -1.884784
   7 C     6.0000    0    12.011    1.390933   -1.776104   -2.565046
   8 C     6.0000    0    12.011    3.135371   -0.237876   -1.506503
   9 C     6.0000    0    12.011   -0.171815    1.852307    1.058333
  10 C     6.0000    0    12.011    2.401968    1.604704    0.323372
  11 N     7.0000    0    14.007   -0.882864    3.613998    2.767366
  12 C     6.0000    0    12.011    0.847918    5.105414    3.775002
  13 C     6.0000    0    12.011    3.424855    4.987541    3.180033
  14 C     6.0000    0    12.011    4.191549    3.223691    1.437498
  15 C     6.0000    0    12.011   -6.297872    4.140405    1.780938
  16 O     8.0000    0    15.999   -6.128547    4.946770   -0.376112
  17 N     7.0000    0    14.007   -7.112474    5.453480    3.802765
  18 C     6.0000    0    12.011   -7.376041    4.389585    6.331848
  19 C     6.0000    0    12.011   -8.093953    8.002212    3.458444
  20 H     1.0000    0     1.008  -10.129102    8.044882    3.814101
  21 H     1.0000    0     1.008   -7.729721    8.627614    1.541055
  22 H     1.0000    0     1.008   -7.170675    9.284117    4.784558
  23 H     1.0000    0     1.008   -6.194853    2.730501    6.545356
  24 H     1.0000    0     1.008   -9.342075    3.879776    6.716180
  25 H     1.0000    0     1.008   -6.790333    5.808502    7.707217
  26 H     1.0000    0     1.008   -2.255294   -4.640917   -4.402134
  27 H     1.0000    0     1.008   -8.296187   -1.410677   -0.076717
  28 H     1.0000    0     1.008   -6.799584   -4.522524   -3.276732
  29 H     1.0000    0     1.008    1.939658   -3.173235   -3.956233
  30 H     1.0000    0     1.008    5.111182   -0.369586   -2.025425
  31 H     1.0000    0     1.008    0.176925    6.488177    5.133813
  32 H     1.0000    0     1.008    4.749998    6.262608    4.072581
  33 H     1.0000    0     1.008    6.159488    3.054898    0.898058

--------------------------------
INTERNAL COORDINATES (ANGSTROEM)
--------------------------------
 C      0   0   0     0.000000000000     0.00000000     0.00000000
 C      1   0   0     1.398165626494     0.00000000     0.00000000
 C      2   1   0     1.373933565342   119.42976188     0.00000000
 C      1   2   3     1.377410964922   120.76193380     0.28422292
 C      4   1   2     1.418362760191   121.92719829   359.67590748
 O      4   1   2     1.391449031807   115.45885487   184.42213042
 C      3   2   1     1.408794727340   120.81196246     0.07097809
 C      7   3   2     1.432181130833   119.04443674   179.19693875
 C      8   7   3     1.352223434297   121.48658745   180.72588883
 C      5   4   1     1.456932868442   125.50830535   180.54937012
 C     10   5   4     1.422476517155   119.14006652   178.73032296
 N     10   5   4     1.352246100842   120.01021667   358.55886184
 C     12  10   5     1.321382109572   119.26011109   179.64310276
 C     13  12  10     1.400919261161   123.87693876     0.08463096
 C     14  13  12     1.373356697009   117.95125025     0.30474985
 C      6   4   1     1.371051265406   117.80921215   259.05113276
 O     16   6   4     1.221901713131   122.34648656     5.56725184
 N     16   6   4     1.346600297826   111.80248031   184.32395934
 C     18  16   6     1.458610233048   124.08705640   358.88260077
 C     18  16   6     1.456717717977   119.50540603   186.71016812
 H     20  18  16     1.093509256389   110.40976501   110.89528765
 H     20  18  16     1.084513300747   109.64513287   350.47010580
 H     20  18  16     1.091478382758   109.59767806   230.36221597
 H     19  18  16     1.083631923989   110.68467381    22.10789776
 H     19  18  16     1.093862294087   110.89987180   260.70289317
 H     19  18  16     1.090672240249   108.62592265   141.64756499
 H      3   2   1     1.082741590660   120.60482587   179.69519865
 H      1   2   3     1.081978661787   120.83552315   180.52269013
 H      2   1   3     1.082201124260   119.83995220   179.84244042
 H      8   7   3     1.083001572825   117.88227346     0.43765578
 H      9   8   7     1.083257492061   121.00837272   179.70748357
 H     13  12  10     1.085604494053   116.30501113   179.91090329
 H     14  13  12     1.081703814605   120.33944268   180.04148084
 H     15  14  13     1.083492133138   121.12216409   179.67030254

---------------------------
INTERNAL COORDINATES (A.U.)
---------------------------
 C      0   0   0     0.000000000000     0.00000000     0.00000000
 C      1   0   0     2.642150123935     0.00000000     0.00000000
 C      2   1   0     2.596358164699   119.42976188     0.00000000
 C      1   2   3     2.602929497562   120.76193380     0.28422292
 C      4   1   2     2.680317175313   121.92719829   359.67590748
 O      4   1   2     2.629457599424   115.45885487   184.42213042
 C      3   2   1     2.662236213586   120.81196246     0.07097809
 C      7   3   2     2.706430111445   119.04443674   179.19693875
 C      8   7   3     2.555331962692   121.48658745   180.72588883
 C      5   4   1     2.753204116863   125.50830535   180.54937012
 C     10   5   4     2.688091049356   119.14006652   178.73032296
 N     10   5   4     2.555374796255   120.01021667   358.55886184
 C     12  10   5     2.497050305353   119.26011109   179.64310276
 C     13  12  10     2.647353739329   123.87693876     0.08463096
 C     14  13  12     2.595268041533   117.95125025     0.30474985
 C      6   4   1     2.590911407184   117.80921215   259.05113276
 O     16   6   4     2.309059600387   122.34648656     5.56725184
 N     16   6   4     2.544705774748   111.80248031   184.32395934
 C     18  16   6     2.756373876596   124.08705640   358.88260077
 C     18  16   6     2.752797541407   119.50540603   186.71016812
 H     20  18  16     2.066433019483   110.40976501   110.89528765
 H     20  18  16     2.049433127007   109.64513287   350.47010580
 H     20  18  16     2.062595224508   109.59767806   230.36221597
 H     19  18  16     2.047767566314   110.68467381    22.10789776
 H     19  18  16     2.067100164047   110.89987180   260.70289317
 H     19  18  16     2.061071835940   108.62592265   141.64756499
 H      3   2   1     2.046085080154   120.60482587   179.69519865
 H      1   2   3     2.044643353524   120.83552315   180.52269013
 H      2   1   3     2.045063746674   119.83995220   179.84244042
 H      8   7   3     2.046576375245   117.88227346     0.43765578
 H      9   8   7     2.047059992514   121.00837272   179.70748357
 H     13  12  10     2.051495183515   116.30501113   179.91090329
 H     14  13  12     2.044123967622   120.33944268   180.04148084
 H     15  14  13     2.047503399890   121.12216409   179.67030254

---------------------
BASIS SET INFORMATION
---------------------
There are 4 groups of distinct atoms

 Group   1 Type C   : 11s6p2d contracted to 5s3p2d pattern {62111/411/11}
 Group   2 Type O   : 11s6p2d contracted to 5s3p2d pattern {62111/411/11}
 Group   3 Type N   : 11s6p2d contracted to 5s3p2d pattern {62111/411/11}
 Group   4 Type H   : 5s1p contracted to 3s1p pattern {311/1}

Atom   0C    basis set group =>   1
Atom   1C    basis set group =>   1
Atom   2C    basis set group =>   1
Atom   3C    basis set group =>   1
Atom   4C    basis set group =>   1
Atom   5O    basis set group =>   2
Atom   6C    basis set group =>   1
Atom   7C    basis set group =>   1
Atom   8C    basis set group =>   1
Atom   9C    basis set group =>   1
Atom  10C    basis set group =>   1
Atom  11N    basis set group =>   3
Atom  12C    basis set group =>   1
Atom  13C    basis set group =>   1
Atom  14C    basis set group =>   1
Atom  15C    basis set group =>   1
Atom  16O    basis set group =>   2
Atom  17N    basis set group =>   3
Atom  18C    basis set group =>   1
Atom  19C    basis set group =>   1
Atom  20H    basis set group =>   4
Atom  21H    basis set group =>   4
Atom  22H    basis set group =>   4
Atom  23H    basis set group =>   4
Atom  24H    basis set group =>   4
Atom  25H    basis set group =>   4
Atom  26H    basis set group =>   4
Atom  27H    basis set group =>   4
Atom  28H    basis set group =>   4
Atom  29H    basis set group =>   4
Atom  30H    basis set group =>   4
Atom  31H    basis set group =>   4
Atom  32H    basis set group =>   4
Atom  33H    basis set group =>   4
---------------------------------
AUXILIARY/J BASIS SET INFORMATION
---------------------------------
There are 4 groups of distinct atoms

 Group   1 Type C   : 12s5p4d2f1g contracted to 6s4p3d1f1g pattern {711111/2111/211/2/1}
 Group   2 Type O   : 12s5p4d2f1g contracted to 6s4p3d1f1g pattern {711111/2111/211/2/1}
 Group   3 Type N   : 12s5p4d2f1g contracted to 6s4p3d1f1g pattern {711111/2111/211/2/1}
 Group   4 Type H   : 5s2p1d contracted to 3s1p1d pattern {311/2/1}

Atom   0C    basis set group =>   1
Atom   1C    basis set group =>   1
Atom   2C    basis set group =>   1
Atom   3C    basis set group =>   1
Atom   4C    basis set group =>   1
Atom   5O    basis set group =>   2
Atom   6C    basis set group =>   1
Atom   7C    basis set group =>   1
Atom   8C    basis set group =>   1
Atom   9C    basis set group =>   1
Atom  10C    basis set group =>   1
Atom  11N    basis set group =>   3
Atom  12C    basis set group =>   1
Atom  13C    basis set group =>   1
Atom  14C    basis set group =>   1
Atom  15C    basis set group =>   1
Atom  16O    basis set group =>   2
Atom  17N    basis set group =>   3
Atom  18C    basis set group =>   1
Atom  19C    basis set group =>   1
Atom  20H    basis set group =>   4
Atom  21H    basis set group =>   4
Atom  22H    basis set group =>   4
Atom  23H    basis set group =>   4
Atom  24H    basis set group =>   4
Atom  25H    basis set group =>   4
Atom  26H    basis set group =>   4
Atom  27H    basis set group =>   4
Atom  28H    basis set group =>   4
Atom  29H    basis set group =>   4
Atom  30H    basis set group =>   4
Atom  31H    basis set group =>   4
Atom  32H    basis set group =>   4
Atom  33H    basis set group =>   4
---------------------------------
AUXILIARY/C BASIS SET INFORMATION
---------------------------------
There are 4 groups of distinct atoms

 Group   1 Type C   : 8s6p5d3f1g contracted to 8s6p4d3f1g pattern {11111111/111111/2111/111/1}
 Group   2 Type O   : 8s6p5d3f1g contracted to 8s6p4d3f1g pattern {11111111/111111/2111/111/1}
 Group   3 Type N   : 8s6p5d3f1g contracted to 8s6p4d3f1g pattern {11111111/111111/2111/111/1}
 Group   4 Type H   : 4s3p2d contracted to 4s2p1d pattern {1111/21/2}

Atom   0C    basis set group =>   1
Atom   1C    basis set group =>   1
Atom   2C    basis set group =>   1
Atom   3C    basis set group =>   1
Atom   4C    basis set group =>   1
Atom   5O    basis set group =>   2
Atom   6C    basis set group =>   1
Atom   7C    basis set group =>   1
Atom   8C    basis set group =>   1
Atom   9C    basis set group =>   1
Atom  10C    basis set group =>   1
Atom  11N    basis set group =>   3
Atom  12C    basis set group =>   1
Atom  13C    basis set group =>   1
Atom  14C    basis set group =>   1
Atom  15C    basis set group =>   1
Atom  16O    basis set group =>   2
Atom  17N    basis set group =>   3
Atom  18C    basis set group =>   1
Atom  19C    basis set group =>   1
Atom  20H    basis set group =>   4
Atom  21H    basis set group =>   4
Atom  22H    basis set group =>   4
Atom  23H    basis set group =>   4
Atom  24H    basis set group =>   4
Atom  25H    basis set group =>   4
Atom  26H    basis set group =>   4
Atom  27H    basis set group =>   4
Atom  28H    basis set group =>   4
Atom  29H    basis set group =>   4
Atom  30H    basis set group =>   4
Atom  31H    basis set group =>   4
Atom  32H    basis set group =>   4
Atom  33H    basis set group =>   4


           ************************************************************
           *        Program running with 128 parallel MPI-processes   *
           *              working on a common directory               *
           ************************************************************
------------------------------------------------------------------------------
                             ORCA STARTUP CALCULATIONS
                           -- RI-GTO INTEGRALS CHOSEN --
------------------------------------------------------------------------------
------------------------------------------------------------------------------
                   ___                                                        
                  /   \      - P O W E R E D   B Y -                         
                 /     \                                                     
                 |  |  |   _    _      __       _____    __    __             
                 |  |  |  | |  | |    /  \     |  _  \  |  |  /  |          
                  \  \/   | |  | |   /    \    | | | |  |  | /  /          
                 / \  \   | |__| |  /  /\  \   | |_| |  |  |/  /          
                |  |  |   |  __  | /  /__\  \  |    /   |      \           
                |  |  |   | |  | | |   __   |  |    \   |  |\   \          
                \     /   | |  | | |  |  |  |  | |\  \  |  | \   \       
                 \___/    |_|  |_| |__|  |__|  |_| \__\ |__|  \__/        
                                                                              
                      - O R C A' S   B I G   F R I E N D -                    
                                      &                                       
                       - I N T E G R A L  F E E D E R -                       
                                                                              
 v1 FN, 2020, v2 2021, v3 2022-2024                                           
------------------------------------------------------------------------------


----------------------
SHARK INTEGRAL PACKAGE
----------------------

Number of atoms                             ...     34
Number of basis functions                   ...    564
Number of shells                            ...    256
Maximum angular momentum                    ...      2
Integral batch strategy                     ... SHARK/LIBINT Hybrid
RI-J (if used) integral strategy            ... SPLIT-RIJ (Revised 2003 algorithm where possible)
Printlevel                                  ...      1
Contraction scheme used                     ... SEGMENTED contraction
Prescreening option                         ... SCHWARTZ
   Thresh                                   ... 2.500e-11
   Tcut                                     ... 2.500e-12
   Tpresel                                  ... 2.500e-12 
Coulomb Range Separation                    ... NOT USED
Exchange Range Separation                   ... Long Range
   Mu parameter                             ... 3.300e-01
   Scaling (regular/separated)              ... 1.900e-01 4.600e-01
Multipole approximations                    ... NOT USED
Finite Nucleus Model                        ... NOT USED
CABS basis                                  ... NOT available
Auxiliary Coulomb fitting basis             ... AVAILABLE
   # of basis functions in Aux-J            ...   1134
   # of shells in Aux-J                     ...    370
   Maximum angular momentum in Aux-J        ...      4
Auxiliary J/K fitting basis                 ... NOT available
Auxiliary Correlation fitting basis         ... AVAILABLE
   # of basis functions in Aux-C            ...   1730
   # of shells in Aux-C                     ...    538
   Maximum angular momentum in Aux-C        ...      4
Auxiliary 'external' fitting basis          ... NOT available

Checking pre-screening integrals            ... done (  1.5 sec) Dimension = 256
Check shell pair data                       ... done (  0.2 sec)
Shell pair information
Shell pair cut-off parameter TPreSel        ...   2.5e-12
Total number of shell pairs                 ...     32896
Shell pairs after pre-screening             ...     24990
Total number of primitive shell pairs       ...    108362
Primitive shell pairs kept                  ...     54621
          la=0 lb=0:   7273 shell pairs
          la=1 lb=0:   8169 shell pairs
          la=1 lb=1:   2304 shell pairs
          la=2 lb=0:   4202 shell pairs
          la=2 lb=1:   2389 shell pairs
          la=2 lb=2:    653 shell pairs

Calculating one electron integrals          ... done (  0.2 sec)
Calculating RI/J V-Matrix + Cholesky decomp.... done (  1.3 sec)
Calculating RI/C V-Matrix + Cholesky decomp.... done (  1.0 sec)
Calculating Nuclear repulsion               ... done (  0.0 sec) ENN=   1509.199875566982 Eh

Diagonalization of the overlap matrix:
Smallest eigenvalue                        ... 3.811e-06
Time for diagonalization                   ...    0.090 sec
Threshold for overlap eigenvalues          ... 1.000e-07
Number of eigenvalues below threshold      ... 0
Time for construction of square roots      ...    0.135 sec
Total time needed                          ...    2.061 sec

-------------------
DFT GRID GENERATION
-------------------

General Integration Accuracy     IntAcc      ... 4.388
Radial Grid Type                 RadialGrid  ... OptM3 with GC (2021)
Angular Grid (max. ang.)         AngularGrid ... 4 (Lebedev-302)
Angular grid pruning method      GridPruning ... 4 (adaptive)
Weight generation scheme         WeightScheme... mBecke (2022)
Basis function cutoff            BFCut       ... 1.0000e-11
Integration weight cutoff        WCut        ... 1.0000e-14
Partially contracted basis set               ... off
Rotationally invariant grid construction     ... off
Angular grids for H and He will be reduced by one unit

Total number of grid points                  ...   164466
Total number of batches                      ...     2587
Average number of points per batch           ...       63
Average number of grid points per atom       ...     4837

--------------------
COSX GRID GENERATION
--------------------

GRIDX 1
-------
General Integration Accuracy     IntAcc      ... 3.816
Radial Grid Type                 RadialGrid  ... OptM3 with GC (2021)
Angular Grid (max. ang.)         AngularGrid ... 1 (Lebedev-50)
Angular grid pruning method      GridPruning ... 4 (adaptive)
Weight generation scheme         WeightScheme... mBecke (2022)
Basis function cutoff            BFCut       ... 1.0000e-11
Integration weight cutoff        WCut        ... 1.0000e-14
Partially contracted basis set               ... on
Rotationally invariant grid construction     ... off
Angular grids for H and He will be reduced by one unit

Total number of grid points                  ...    20929
Total number of batches                      ...      180
Average number of points per batch           ...      116
Average number of grid points per atom       ...      616
UseSFitting                                  ... on

GRIDX 2
-------
General Integration Accuracy     IntAcc      ... 4.020
Radial Grid Type                 RadialGrid  ... OptM3 with GC (2021)
Angular Grid (max. ang.)         AngularGrid ... 2 (Lebedev-110)
Angular grid pruning method      GridPruning ... 4 (adaptive)
Weight generation scheme         WeightScheme... mBecke (2022)
Basis function cutoff            BFCut       ... 1.0000e-11
Integration weight cutoff        WCut        ... 1.0000e-14
Partially contracted basis set               ... on
Rotationally invariant grid construction     ... off
Angular grids for H and He will be reduced by one unit

Total number of grid points                  ...    45703
Total number of batches                      ...      372
Average number of points per batch           ...      122
Average number of grid points per atom       ...     1344
UseSFitting                                  ... on

GRIDX 3
-------
General Integration Accuracy     IntAcc      ... 4.338
Radial Grid Type                 RadialGrid  ... OptM3 with GC (2021)
Angular Grid (max. ang.)         AngularGrid ... 3 (Lebedev-194)
Angular grid pruning method      GridPruning ... 4 (adaptive)
Weight generation scheme         WeightScheme... mBecke (2022)
Basis function cutoff            BFCut       ... 1.0000e-11
Integration weight cutoff        WCut        ... 1.0000e-14
Partially contracted basis set               ... on
Rotationally invariant grid construction     ... off
Angular grids for H and He will be reduced by one unit

Total number of grid points                  ...   100007
Total number of batches                      ...      799
Average number of points per batch           ...      125
Average number of grid points per atom       ...     2941
UseSFitting                                  ... on
Initializing property integral containers    ... done (  2.5 sec)

SHARK setup successfully completed in  76.8 seconds

Maximum memory used throughout the entire STARTUP-calculation: 62.0 MB


           ************************************************************
           *        Program running with 128 parallel MPI-processes   *
           *              working on a common directory               *
           ************************************************************
-------------------------------------------------------------------------------
                                 ORCA GUESS
                   Start orbitals & Density for SCF / CASSCF
-------------------------------------------------------------------------------

------------
SCF SETTINGS
------------
Hamiltonian:
 Density Functional     Method          .... DFT(GTOs)
 Exchange Functional    Exchange        .... WB88
 Correlation Functional Correlation     .... LYP
 LDA part of GGA corr.  LDAOpt          .... VWN-5
 Gradients option       PostSCFGGA      .... off
 Hybrid DFT is turned on
   Fraction HF Exchange ScalHFX         ....  0.190000
   Scaling of DF-GGA-X  ScalDFX         ....  0.350000
   Scaling of DF-GGA-C  ScalDFC         ....  0.810000
   Scaling of DF-LDA-C  ScalLDAC        ....  1.000000
   Perturbative correction              ....  0.000000
 Long-range corrected/Screened/Range-Separated Hybrid DFT is turned on
   Amount of maximum screened exact exchange              ....  0.460000
   Range separation parameter mu (erf(mu*r12)/r12)        ....  0.330000
 RI-approximation to the Coulomb term is turned on
   Number of AuxJ basis functions       .... 1134
   RIJ-COSX (HFX calculated with COS-X)).... on


General Settings:
 Integral files         IntName         .... hbq-gs
 Hartree-Fock type      HFTyp           .... RHF
 Total Charge           Charge          ....    0
 Multiplicity           Mult            ....    1
 Number of Electrons    NEL             ....  140
 Basis Dimension        Dim             ....  564
 Nuclear Repulsion      ENuc            ....   1509.1998755670 Eh

Convergence Acceleration:
 AO-DIIS                CNVDIIS         .... on
   Start iteration      DIISMaxIt       ....    12
   Startup error        DIISStart       ....  0.200000
   # of expansion vecs  DIISMaxEq       ....     5
   Bias factor          DIISBfac        ....   1.050
   Max. coefficient     DIISMaxC        ....  10.000
 MO-DIIS                CNVKDIIS        .... off
 Trust-Rad. Augm. Hess. CNVTRAH         .... auto
   Auto Start mean grad. ratio tolernc. ....  1.125000
   Auto Start start iteration           ....    50
   Auto Start num. interpolation iter.  ....    10
   Max. Number of Micro iterations      ....    24
   Max. Number of Macro iterations      .... Maxiter - #DIIS iter
   Number of Davidson start vectors     ....     2
   Converg. threshold    (grad. norm)   ....   1.000e-05
   Grad. Scal. Fac. for Micro threshold ....   0.100
   Minimum threshold for Micro iter.    ....   1.000e-02
   NR start threshold (gradient norm)   ....   1.000e-04
   Initial trust radius                 ....   0.400
   Minimum AH scaling param. (alpha)    ....   1.000
   Maximum AH scaling param. (alpha)    .... 1000.000
   Quad. conv. algorithm                .... NR
   White noise on init. David. guess    .... on
   Maximum white noise                  ....   0.010
   Pseudo random numbers                .... off
   Inactive MOs                         .... canonical
   Orbital update algorithm             .... Taylor
   Preconditioner                       .... Diag
   Full preconditioner red. dimension   ....   250
 SOSCF                  CNVSOSCF        .... on
   Start iteration      SOSCFMaxIt      ....   150
   Startup grad/error   SOSCFStart      ....  0.003300
   Hessian update       SOSCFHessUp     .... L-BFGS
 Level Shifting         CNVShift        .... on
   Level shift para.    LevelShift      ....    0.2500
   Turn off err/grad.   ShiftErr        ....    0.0010
 Zerner damping         CNVZerner       .... off
 Static damping         CNVDamp         .... on
   Fraction old density DampFac         ....    0.7000
   Max. Damping (<1)    DampMax         ....    0.9800
   Min. Damping (>=0)   DampMin         ....    0.0000
   Turn off err/grad.   DampErr         ....    0.1000

SCF Procedure:
 Maximum # iterations   MaxIter         ....   125
 SCF integral mode      SCFMode         .... Direct
   Integral package                     .... SHARK and LIBINT hybrid scheme
 Reset frequency        DirectResetFreq ....    20
 Integral Threshold     Thresh          ....  2.500e-11 Eh
 Primitive CutOff       TCut            ....  2.500e-12 Eh

Convergence Tolerance:
 Convergence Check Mode ConvCheckMode   .... Total+1el-Energy
 Convergence forced     ConvForced      .... 0
 Energy Change          TolE            ....  1.000e-08 Eh
 1-El. energy change                    ....  1.000e-05 Eh
 Orbital Gradient       TolG            ....  1.000e-05
 Orbital Rotation angle TolX            ....  1.000e-05
 DIIS Error             TolErr          ....  5.000e-07

------------------------------
INITIAL GUESS: MODEL POTENTIAL
------------------------------
Loading Hartree-Fock densities                     ... done
Calculating cut-offs                               ... done
Initializing the effective Hamiltonian             ... done
Setting up the integral package (SHARK)            ... done
Starting the Coulomb interaction                   ... done (   3.3 sec)
Making the grid                                    ... done (   9.1 sec)
Mapping shells                                     ... done
Starting the XC term evaluation                    ... done (   2.2 sec)
  promolecular density results
     # of electrons  =    139.979627372
     EX              =   -115.411358374
     EC              =     -4.711013585
     EX+EC           =   -120.122371959
Transforming the Hamiltonian                       ... done (   3.5 sec)
Diagonalizing the Hamiltonian                      ... done (   0.1 sec)
Back transforming the eigenvectors                 ... done (   4.8 sec)
Now organizing SCF variables                       ... done
                      ------------------
                      INITIAL GUESS DONE (  49.9 sec)
                      ------------------
             **** ENERGY FILE WAS UPDATED (hbq-gs.en.tmp) ****
Finished Guess after  99.2 sec
Maximum memory used throughout the entire GUESS-calculation: 45.7 MB


           ************************************************************
           *        Program running with 128 parallel MPI-processes   *
           *              working on a common directory               *
           ************************************************************

-------------------------------------------------------------------------------------------
                                      ORCA LEAN-SCF
                              memory conserving SCF solver
-------------------------------------------------------------------------------------------

--------------------
CPCM SOLVATION MODEL
--------------------
CPCM parameters:
  Epsilon                                         ...      80.1510
  Refrac                                          ...       1.3328
  Rsolv                                           ...       1.3000
  Surface type                                    ... GAUSSIAN VDW
  Discretization scheme                           ... Constant charge density
    Threshold for H atoms                         ...       5.0000 (charges/Ang^2)
    Threshold for non-H atoms                     ...       5.0000 (charges/Ang^2)
  Epsilon function type                           ...         CPCM
Solvent:                                          ... WATER
Radii:
  Scheme                                          ... Element-dependent radii
  Radius for C  used is    3.8550 Bohr (=   2.0400 Ang.)
  Radius for O  used is    3.4469 Bohr (=   1.8240 Ang.)
  Radius for N  used is    3.5149 Bohr (=   1.8600 Ang.)
  Radius for H  used is    2.4944 Bohr (=   1.3200 Ang.)
Calculating surface                               ...        done! (  0.0s)
Cavity surface points                             ...         2999
Cavity Volume                                     ...    2119.0421
Cavity Surface-area                               ...    1080.4645
Calculating surface distance matrix               ...        done! (  0.1s)
Performing Cholesky decomposition & store         ...        done! (  1.7s)
Overall time for CPCM initialization              ...                 1.9s

----------------------------------------D-I-I-S--------------------------------------------
Iteration    Energy (Eh)           Delta-E    RMSDP     MaxDP     DIISErr   Damp  Time(sec)
-------------------------------------------------------------------------------------------
               ***  Starting incremental Fock matrix formation  ***
    1    -877.5977062438146277     0.00e+00  2.66e-03  2.04e-01  2.87e-01  0.700 137.6
    2    -877.7644908806678359    -1.67e-01  2.07e-03  1.33e-01  1.30e-01  0.700 138.6
                               ***Turning on AO-DIIS***
    3    -877.8436587753185449    -7.92e-02  1.34e-03  9.58e-02  4.15e-02  0.700 134.9
    4    -877.8911937702077921    -4.75e-02  2.87e-03  2.16e-01  3.21e-02  0.000 131.4
    5    -877.9939601422329361    -1.03e-01  2.07e-04  9.59e-03  5.13e-03  0.000 123.5
                              *** Initializing SOSCF ***
---------------------------------------S-O-S-C-F--------------------------------------
Iteration    Energy (Eh)           Delta-E    RMSDP     MaxDP     MaxGrad    Time(sec)
--------------------------------------------------------------------------------------
    6    -877.9942778629106215    -3.18e-04  6.36e-05  3.01e-03  2.04e-03   156.5
               *** Restarting incremental Fock matrix formation ***
    7    -877.9943165949375725    -3.87e-05  9.13e-05  3.94e-03  5.16e-04   122.8
    8    -877.9943305000192595    -1.39e-05  4.80e-05  1.89e-03  1.50e-04   131.6
    9    -877.9943319756034725    -1.48e-06  3.25e-05  1.42e-03  1.12e-04   133.3
   10    -877.9943336770179485    -1.70e-06  5.28e-06  3.78e-04  1.48e-05   131.8
   11    -877.9943336871415340    -1.01e-08  3.88e-06  3.78e-04  1.18e-05   134.9
   12    -877.9943337099366545    -2.28e-08  5.36e-06  4.78e-04  3.27e-06   124.4
   13    -877.9943337223367053    -1.24e-08  2.33e-06  1.64e-04  2.45e-06   138.7
                  *** Gradient check signals convergence ***

               *****************************************************
               *                     SUCCESS                       *
               *           SCF CONVERGED AFTER  13 CYCLES          *
               *****************************************************

Recomputing exchange energy using gridx3       ... done (    9.852 sec)
Old exchange energy                            :    -33.322347240 Eh
New exchange energy                            :    -33.322349730 Eh
Exchange energy change after final integration :     -0.000002490 Eh
Total energy after final integration           :   -877.994336212 Eh
             **** ENERGY FILE WAS UPDATED (hbq-gs.en.tmp) ****

----------------
TOTAL SCF ENERGY
----------------

Total Energy       :       -877.99433621235664 Eh          -23891.44051 eV

Components:
Nuclear Repulsion  :       1509.19987556698197 Eh           41067.41644 eV
Electronic Energy  :      -2387.16875271939261 Eh          -64958.16417 eV
One Electron Energy:      -4191.70081093087356 Eh         -114061.97786 eV
Two Electron Energy:       1804.53205821148072 Eh           49103.81369 eV
CPCM Dielectric    :         -0.02545656992545 Eh              -0.69271 eV

Virial components:
Potential Energy   :      -1752.12613257466137 Eh          -47677.77596 eV
Kinetic Energy     :        874.13179636230473 Eh           23786.33545 eV
Virial Ratio       :          2.00441871565149

DFT components:
N(Alpha)           :       70.000105194010 electrons
N(Beta)            :       70.000105194010 electrons
N(Total)           :      140.000210388021 electrons
E(XC)              :      -89.536555221592 Eh       

CPCM Solvation Model Properties:
Surface-charge          :         -0.03326367817972
Corrected charge        :         -0.00000000000000
Outlying charge corr.   :          0.00006215760914 Eh               0.00169 eV
Free-energy (cav+disp)  :  This term is not implemented in the current solvation scheme

---------------
SCF CONVERGENCE
---------------

  Last Energy change         ...    1.2400e-08  Tolerance :   1.0000e-08
  Last MAX-Density change    ...    1.6418e-04  Tolerance :   1.0000e-07
  Last RMS-Density change    ...    2.3257e-06  Tolerance :   5.0000e-09
  Last DIIS Error            ...    2.0384e-03  Tolerance :   5.0000e-07
  Last Orbital Gradient      ...    2.4451e-06  Tolerance :   1.0000e-05
  Last Orbital Rotation      ...    5.7306e-06  Tolerance :   1.0000e-05


----------------
ORBITAL ENERGIES
----------------

  NO   OCC          E(Eh)            E(eV) 
   0   2.0000     -19.247943      -523.7632 
   1   2.0000     -19.173934      -521.7493 
   2   2.0000     -14.424394      -392.5077 
   3   2.0000     -14.392328      -391.6352 
   4   2.0000     -10.400562      -283.0137 
   5   2.0000     -10.322514      -280.8899 
   6   2.0000     -10.301070      -280.3064 
   7   2.0000     -10.286776      -279.9174 
   8   2.0000     -10.276375      -279.6344 
   9   2.0000     -10.272317      -279.5240 
  10   2.0000     -10.270184      -279.4659 
  11   2.0000     -10.269795      -279.4553 
  12   2.0000     -10.268378      -279.4168 
  13   2.0000     -10.267880      -279.4032 
  14   2.0000     -10.257073      -279.1092 
  15   2.0000     -10.256983      -279.1067 
  16   2.0000     -10.256706      -279.0992 
  17   2.0000     -10.256139      -279.0837 
  18   2.0000     -10.254783      -279.0468 
  19   2.0000     -10.253783      -279.0196 
  20   2.0000      -1.199978       -32.6531 
  21   2.0000      -1.104322       -30.0501 
  22   2.0000      -1.039757       -28.2932 
  23   2.0000      -1.029025       -28.0012 
  24   2.0000      -0.966055       -26.2877 
  25   2.0000      -0.922612       -25.1056 
  26   2.0000      -0.890386       -24.2286 
  27   2.0000      -0.865201       -23.5433 
  28   2.0000      -0.832516       -22.6539 
  29   2.0000      -0.824575       -22.4378 
  30   2.0000      -0.800581       -21.7849 
  31   2.0000      -0.785081       -21.3632 
  32   2.0000      -0.732910       -19.9435 
  33   2.0000      -0.725154       -19.7324 
  34   2.0000      -0.708100       -19.2684 
  35   2.0000      -0.694388       -18.8953 
  36   2.0000      -0.647723       -17.6254 
  37   2.0000      -0.620153       -16.8752 
  38   2.0000      -0.608669       -16.5627 
  39   2.0000      -0.604163       -16.4401 
  40   2.0000      -0.588680       -16.0188 
  41   2.0000      -0.569310       -15.4917 
  42   2.0000      -0.565520       -15.3886 
  43   2.0000      -0.554269       -15.0824 
  44   2.0000      -0.549265       -14.9463 
  45   2.0000      -0.535819       -14.5804 
  46   2.0000      -0.512847       -13.9553 
  47   2.0000      -0.511282       -13.9127 
  48   2.0000      -0.509245       -13.8573 
  49   2.0000      -0.496883       -13.5209 
  50   2.0000      -0.490001       -13.3336 
  51   2.0000      -0.482846       -13.1389 
  52   2.0000      -0.474118       -12.9014 
  53   2.0000      -0.472248       -12.8505 
  54   2.0000      -0.471013       -12.8169 
  55   2.0000      -0.466210       -12.6862 
  56   2.0000      -0.452880       -12.3235 
  57   2.0000      -0.449135       -12.2216 
  58   2.0000      -0.442683       -12.0460 
  59   2.0000      -0.426881       -11.6160 
  60   2.0000      -0.418455       -11.3867 
  61   2.0000      -0.401180       -10.9167 
  62   2.0000      -0.384940       -10.4747 
  63   2.0000      -0.366177        -9.9642 
  64   2.0000      -0.356624        -9.7042 
  65   2.0000      -0.339050        -9.2260 
  66   2.0000      -0.326371        -8.8810 
  67   2.0000      -0.310767        -8.4564 
  68   2.0000      -0.298875        -8.1328 
  69   2.0000      -0.277745        -7.5578 
  70   0.0000      -0.021532        -0.5859 
  71   0.0000      -0.013169        -0.3583 
  72   0.0000       0.028220         0.7679 
  73   0.0000       0.057959         1.5771 
  74   0.0000       0.072677         1.9776 
  75   0.0000       0.093074         2.5327 
  76   0.0000       0.101023         2.7490 
  77   0.0000       0.106042         2.8856 
  78   0.0000       0.108554         2.9539 
  79   0.0000       0.118155         3.2152 
  80   0.0000       0.120279         3.2730 
*Only the first 10 virtual orbitals were printed.

                    ********************************
                    * MULLIKEN POPULATION ANALYSIS *
                    ********************************

-----------------------
MULLIKEN ATOMIC CHARGES
-----------------------
   0 C :   -0.169226
   1 C :   -0.125717
   2 C :   -0.189100
   3 C :    0.131761
   4 C :    0.148356
   5 O :   -0.470962
   6 C :    0.204126
   7 C :   -0.233729
   8 C :   -0.255421
   9 C :    0.156403
  10 C :    0.293603
  11 N :   -0.528787
  12 C :    0.058349
  13 C :   -0.076611
  14 C :   -0.195626
  15 C :    0.739404
  16 O :   -0.629679
  17 N :   -0.244203
  18 C :   -0.293532
  19 C :   -0.276197
  20 H :    0.144770
  21 H :    0.153568
  22 H :    0.148454
  23 H :    0.159588
  24 H :    0.148905
  25 H :    0.148872
  26 H :    0.128291
  27 H :    0.129666
  28 H :    0.130348
  29 H :    0.126525
  30 H :    0.124299
  31 H :    0.134776
  32 H :    0.138911
  33 H :    0.139817
Sum of atomic charges:   -0.0000000

--------------------------------
MULLIKEN REDUCED ORBITAL CHARGES
--------------------------------
  0 C s       :     3.220106  s :     3.220106
      pz      :     0.976809  p :     2.872590
      px      :     0.922847
      py      :     0.972934
      dz2     :     0.017207  d :     0.076530
      dxz     :     0.014047
      dyz     :     0.012590
      dx2y2   :     0.017058
      dxy     :     0.015628

  1 C s       :     3.208589  s :     3.208589
      pz      :     0.942707  p :     2.831475
      px      :     0.944838
      py      :     0.943930
      dz2     :     0.017412  d :     0.085654
      dxz     :     0.020088
      dyz     :     0.009737
      dx2y2   :     0.016851
      dxy     :     0.021566

  2 C s       :     3.209385  s :     3.209385
      pz      :     0.975384  p :     2.894945
      px      :     0.948740
      py      :     0.970821
      dz2     :     0.009718  d :     0.084770
      dxz     :     0.023972
      dyz     :     0.007974
      dx2y2   :     0.017786
      dxy     :     0.025319

  3 C s       :     3.124311  s :     3.124311
      pz      :     0.749339  p :     2.548030
      px      :     0.853476
      py      :     0.945215
      dz2     :     0.037143  d :     0.195899
      dxz     :     0.046914
      dyz     :     0.020034
      dx2y2   :     0.053580
      dxy     :     0.038228

  4 C s       :     3.360325  s :     3.360325
      pz      :     0.946296  p :     2.363996
      px      :     0.671884
      py      :     0.745817
      dz2     :     0.022421  d :     0.127323
      dxz     :     0.028213
      dyz     :     0.014643
      dx2y2   :     0.026593
      dxy     :     0.035452

  5 O s       :     3.824219  s :     3.824219
      pz      :     1.574072  p :     4.603665
      px      :     1.699244
      py      :     1.330349
      dz2     :     0.009424  d :     0.043078
      dxz     :     0.006173
      dyz     :     0.011944
      dx2y2   :     0.008866
      dxy     :     0.006672

  6 C s       :     3.040475  s :     3.040475
      pz      :     0.894660  p :     2.608509
      px      :     0.844445
      py      :     0.869404
      dz2     :     0.026932  d :     0.146889
      dxz     :     0.032309
      dyz     :     0.018999
      dx2y2   :     0.034716
      dxy     :     0.033933

  7 C s       :     3.252908  s :     3.252908
      pz      :     0.967076  p :     2.895429
      px      :     0.966924
      py      :     0.961429
      dz2     :     0.010472  d :     0.085393
      dxz     :     0.020824
      dyz     :     0.010475
      dx2y2   :     0.025033
      dxy     :     0.018589

  8 C s       :     3.284821  s :     3.284821
      pz      :     0.964873  p :     2.884038
      px      :     0.952325
      py      :     0.966840
      dz2     :     0.021417  d :     0.086562
      dxz     :     0.011873
      dyz     :     0.015359
      dx2y2   :     0.024873
      dxy     :     0.013039

  9 C s       :     3.089648  s :     3.089648
      pz      :     0.873833  p :     2.587469
      px      :     0.906210
      py      :     0.807426
      dz2     :     0.029525  d :     0.166480
      dxz     :     0.042992
      dyz     :     0.012352
      dx2y2   :     0.038757
      dxy     :     0.042856

 10 C s       :     3.021611  s :     3.021611
      pz      :     0.845412  p :     2.546995
      px      :     0.859585
      py      :     0.841998
      dz2     :     0.027966  d :     0.137792
      dxz     :     0.027361
      dyz     :     0.019478
      dx2y2   :     0.035837
      dxy     :     0.027150

 11 N s       :     3.656809  s :     3.656809
      pz      :     1.157350  p :     3.796332
      px      :     1.518045
      py      :     1.120937
      dz2     :     0.014537  d :     0.075647
      dxz     :     0.015912
      dyz     :     0.011622
      dx2y2   :     0.014517
      dxy     :     0.019058

 12 C s       :     3.141297  s :     3.141297
      pz      :     0.924982  p :     2.689645
      px      :     0.859118
      py      :     0.905546
      dz2     :     0.014510  d :     0.110709
      dxz     :     0.024616
      dyz     :     0.011657
      dx2y2   :     0.034841
      dxy     :     0.025085

 13 C s       :     3.143658  s :     3.143658
      pz      :     0.961603  p :     2.855312
      px      :     0.931459
      py      :     0.962250
      dz2     :     0.014247  d :     0.077641
      dxz     :     0.018529
      dyz     :     0.009508
      dx2y2   :     0.016129
      dxy     :     0.019228

 14 C s       :     3.225078  s :     3.225078
      pz      :     0.939642  p :     2.885231
      px      :     1.007406
      py      :     0.938183
      dz2     :     0.019440  d :     0.085317
      dxz     :     0.016763
      dyz     :     0.012676
      dx2y2   :     0.018885
      dxy     :     0.017553

 15 C s       :     2.800605  s :     2.800605
      pz      :     0.718038  p :     2.155706
      px      :     0.774222
      py      :     0.663446
      dz2     :     0.067470  d :     0.304285
      dxz     :     0.073347
      dyz     :     0.091903
      dx2y2   :     0.035389
      dxy     :     0.036176

 16 O s       :     3.860509  s :     3.860509
      pz      :     1.438750  p :     4.736678
      px      :     1.580849
      py      :     1.717079
      dz2     :     0.011546  d :     0.032492
      dxz     :     0.009703
      dyz     :     0.008567
      dx2y2   :     0.001045
      dxy     :     0.001631

 17 N s       :     3.436993  s :     3.436993
      pz      :     1.103380  p :     3.721199
      px      :     1.494994
      py      :     1.122825
      dz2     :     0.020357  d :     0.086011
      dxz     :     0.014510
      dyz     :     0.027167
      dx2y2   :     0.011960
      dxy     :     0.012018

 18 C s       :     3.255194  s :     3.255194
      pz      :     0.805132  p :     2.968673
      px      :     1.103524
      py      :     1.060018
      dz2     :     0.016564  d :     0.069665
      dxz     :     0.021274
      dyz     :     0.015411
      dx2y2   :     0.007019
      dxy     :     0.009396

 19 C s       :     3.248085  s :     3.248085
      pz      :     1.108574  p :     2.959792
      px      :     1.051911
      py      :     0.799307
      dz2     :     0.009895  d :     0.068320
      dxz     :     0.004667
      dyz     :     0.013293
      dx2y2   :     0.022287
      dxy     :     0.018177

 20 H s       :     0.832982  s :     0.832982
      pz      :     0.004484  p :     0.022248
      px      :     0.014907
      py      :     0.002858

 21 H s       :     0.822313  s :     0.822313
      pz      :     0.014904  p :     0.024120
      px      :     0.004589
      py      :     0.004627

 22 H s       :     0.829176  s :     0.829176
      pz      :     0.008526  p :     0.022370
      px      :     0.005981
      py      :     0.007863

 23 H s       :     0.816578  s :     0.816578
      pz      :     0.003553  p :     0.023834
      px      :     0.008085
      py      :     0.012195

 24 H s       :     0.828791  s :     0.828791
      pz      :     0.003388  p :     0.022304
      px      :     0.014083
      py      :     0.004834

 25 H s       :     0.828614  s :     0.828614
      pz      :     0.008654  p :     0.022514
      px      :     0.005101
      py      :     0.008758

 26 H s       :     0.845858  s :     0.845858
      pz      :     0.010759  p :     0.025851
      px      :     0.004793
      py      :     0.010299

 27 H s       :     0.844420  s :     0.844420
      pz      :     0.005183  p :     0.025914
      px      :     0.016765
      py      :     0.003966

 28 H s       :     0.843981  s :     0.843981
      pz      :     0.006749  p :     0.025670
      px      :     0.009185
      py      :     0.009736

 29 H s       :     0.847649  s :     0.847649
      pz      :     0.010853  p :     0.025826
      px      :     0.004281
      py      :     0.010692

 30 H s       :     0.849849  s :     0.849849
      pz      :     0.005125  p :     0.025852
      px      :     0.016697
      py      :     0.004030

 31 H s       :     0.840831  s :     0.840831
      pz      :     0.010204  p :     0.024393
      px      :     0.004016
      py      :     0.010173

 32 H s       :     0.835065  s :     0.835065
      pz      :     0.006936  p :     0.026024
      px      :     0.009431
      py      :     0.009657

 33 H s       :     0.834588  s :     0.834588
      pz      :     0.004884  p :     0.025595
      px      :     0.016872
      py      :     0.003839



                     *******************************
                     * LOEWDIN POPULATION ANALYSIS *
                     *******************************

----------------------
LOEWDIN ATOMIC CHARGES
----------------------
   0 C :   -0.101565
   1 C :   -0.122641
   2 C :   -0.098497
   3 C :   -0.122986
   4 C :   -0.028893
   5 O :    0.173513
   6 C :   -0.081674
   7 C :   -0.092899
   8 C :   -0.095204
   9 C :   -0.088872
  10 C :   -0.092092
[...]
 49:   1013.73   0.001193    6.03  0.000367  (-0.008730 -0.000811  0.017044)
 50:   1032.09   0.000239    1.21  0.000072  (-0.001211  0.005763 -0.006141)
 51:   1048.99   0.006172   31.19  0.001836  ( 0.037456 -0.019456  0.007381)
 52:   1064.45   0.003133   15.83  0.000919  ( 0.011526 -0.025503  0.011636)
 53:   1089.05   0.002981   15.06  0.000854  (-0.003732  0.025655 -0.013492)
 54:   1099.97   0.000801    4.05  0.000227  ( 0.002010 -0.014103 -0.004919)
 55:   1121.54   0.000515    2.60  0.000143  (-0.010437 -0.005288 -0.002554)
 56:   1134.67   0.000499    2.52  0.000137  ( 0.003455  0.002316 -0.010948)
 57:   1159.00   0.003378   17.07  0.000910  (-0.022334 -0.019110 -0.006748)
 58:   1175.05   0.000557    2.82  0.000148  (-0.003489  0.011332  0.002714)
 59:   1179.80   0.020806  105.14  0.005503  ( 0.024678 -0.053963 -0.044522)
 60:   1196.69   0.016960   85.71  0.004423  (-0.029391  0.049485  0.033319)
 61:   1205.43   0.119626  604.54  0.030969  (-0.076599  0.141824  0.070621)
 62:   1225.58   0.006509   32.90  0.001657  (-0.021299  0.031233  0.015108)
 63:   1239.88   0.018473   93.36  0.004649  ( 0.021926 -0.057486 -0.029395)
 64:   1274.46   0.029920  151.21  0.007326  (-0.049387  0.064150  0.027787)
 65:   1288.95   0.019326   97.67  0.004679  (-0.031322  0.056503  0.022480)
 66:   1307.92   0.002602   13.15  0.000621  ( 0.000683  0.021278 -0.012950)
 67:   1336.71   0.002427   12.26  0.000567  ( 0.016356 -0.014478 -0.009455)
 68:   1359.02   0.004664   23.57  0.001071  ( 0.020039 -0.020855 -0.015314)
 69:   1365.38   0.006672   33.72  0.001525  (-0.022775  0.025137  0.019349)
 70:   1438.70   0.058786  297.08  0.012751  (-0.043246  0.090269  0.052272)
 71:   1445.17   0.005867   29.65  0.001267  (-0.004069  0.006191  0.034815)
 72:   1446.86   0.004877   24.65  0.001052  (-0.028973 -0.013140 -0.006313)
 73:   1467.12   0.004069   20.56  0.000865  (-0.003109  0.029252  0.000166)
 74:   1472.27   0.008943   45.20  0.001896  (-0.011669  0.041478 -0.006249)
 75:   1482.37   0.008679   43.86  0.001827  ( 0.003387  0.029779  0.030476)
 76:   1485.37   0.000453    2.29  0.000095  ( 0.007725  0.000299 -0.005945)
 77:   1491.80   0.007565   38.23  0.001582  (-0.032481 -0.006627 -0.021988)
 78:   1498.48   0.003171   16.03  0.000660  ( 0.005662 -0.023663  0.008274)
 79:   1499.83   0.006310   31.89  0.001313  ( 0.031779 -0.009691 -0.014461)
 80:   1540.11   0.031325  158.30  0.006347  ( 0.030580 -0.073108 -0.008201)
 81:   1556.56   0.002091   10.56  0.000419  (-0.004692 -0.017932 -0.008693)
 82:   1581.87   0.006161   31.13  0.001215  (-0.023152  0.020229  0.016436)
 83:   1644.43   0.008394   42.42  0.001593  ( 0.039154 -0.003406 -0.006952)
 84:   1673.89   0.013202   66.72  0.002461  (-0.007243 -0.037537 -0.031618)
 85:   1686.32   0.000368    1.86  0.000068  (-0.006344 -0.001192 -0.005134)
 86:   1705.63   0.006180   31.23  0.001131  ( 0.030085  0.014914  0.001770)
 87:   1734.65   0.207257  1047.39  0.037286  ( 0.041723 -0.000589 -0.188532)
 88:   3050.12   0.006556   33.13  0.000671  ( 0.000838  0.022090 -0.013496)
 89:   3053.52   0.019245   97.25  0.001967  ( 0.030109 -0.016234 -0.028225)
 90:   3106.11   0.009105   46.01  0.000915  (-0.023898 -0.014978 -0.010922)
 91:   3114.98   0.003558   17.98  0.000356  ( 0.011899  0.010417  0.010313)
 92:   3173.27   0.005579   28.19  0.000549  ( 0.001757 -0.017013 -0.016004)
 93:   3193.49   0.000507    2.56  0.000050  ( 0.000245  0.003582 -0.006055)
 94:   3196.64   0.000017    0.09  0.000002  (-0.000336  0.000872  0.000889)
 95:   3198.70   0.001107    5.60  0.000108  ( 0.006730 -0.007889  0.000695)
 96:   3201.78   0.001059    5.35  0.000103  ( 0.009421 -0.001634 -0.003431)
 97:   3202.85   0.000031    0.16  0.000003  ( 0.000880 -0.000768 -0.001286)
 98:   3212.63   0.001746    8.82  0.000170  ( 0.011615 -0.002856 -0.005152)
 99:   3214.80   0.003647   18.43  0.000354  ( 0.003914 -0.013409 -0.012608)
100:   3225.57   0.001038    5.24  0.000100  ( 0.007157  0.005917  0.003762)
101:   3227.25   0.001681    8.49  0.000163  (-0.007600 -0.008256 -0.006050)

* The epsilon (eps) is given for a Dirac delta lineshape.
** The dipole moment derivative (T) already includes vibrational overlap.

The first frequency considered to be a vibration is 6
The total number of vibrations considered is 96


--------------------------
THERMOCHEMISTRY AT 298.15K
--------------------------

Temperature         ...   298.15 K
Pressure            ...     1.00 atm
Total Mass          ...   266.30 AMU
Quasi RRHO          ...     True
Cut-Off Frequency   ...     1.00 cm^-1

Throughout the following assumptions are being made:
  (1) The electronic state is orbitally nondegenerate
  (2) There are no thermally accessible electronically excited states
  (3) Hindered rotations indicated by low frequency modes are not
      treated as such but are treated as vibrations and this may
      cause some error
  (4) All equations used are the standard statistical mechanics
      equations for an ideal gas
  (5) All vibrations are strictly harmonic

freq.      29.36  E(vib)   ...       0.55 
freq.      35.65  E(vib)   ...       0.54 
freq.      50.64  E(vib)   ...       0.52 
freq.      59.26  E(vib)   ...       0.51 
freq.      78.75  E(vib)   ...       0.49 
freq.     101.79  E(vib)   ...       0.46 
freq.     115.96  E(vib)   ...       0.44 
freq.     131.93  E(vib)   ...       0.42 
freq.     208.45  E(vib)   ...       0.34 
freq.     218.03  E(vib)   ...       0.33 
freq.     232.83  E(vib)   ...       0.32 
freq.     238.16  E(vib)   ...       0.32 
freq.     248.47  E(vib)   ...       0.31 
freq.     303.21  E(vib)   ...       0.26 
freq.     370.03  E(vib)   ...       0.21 
freq.     381.30  E(vib)   ...       0.21 
freq.     415.31  E(vib)   ...       0.18 
freq.     430.58  E(vib)   ...       0.18 
freq.     472.53  E(vib)   ...       0.15 
freq.     500.62  E(vib)   ...       0.14 
freq.     516.83  E(vib)   ...       0.13 
freq.     531.83  E(vib)   ...       0.13 
freq.     534.09  E(vib)   ...       0.13 
freq.     569.05  E(vib)   ...       0.11 
freq.     595.72  E(vib)   ...       0.10 
freq.     618.54  E(vib)   ...       0.09 
freq.     635.11  E(vib)   ...       0.09 
freq.     673.55  E(vib)   ...       0.08 
freq.     717.04  E(vib)   ...       0.07 
freq.     740.43  E(vib)   ...       0.06 
freq.     759.44  E(vib)   ...       0.06 
freq.     765.21  E(vib)   ...       0.06 
freq.     791.20  E(vib)   ...       0.05 
freq.     819.92  E(vib)   ...       0.05 
freq.     840.08  E(vib)   ...       0.04 
freq.     857.87  E(vib)   ...       0.04 
freq.     882.43  E(vib)   ...       0.04 
freq.     885.16  E(vib)   ...       0.04 
freq.     906.69  E(vib)   ...       0.03 
freq.     950.12  E(vib)   ...       0.03 
freq.     995.09  E(vib)   ...       0.02 
freq.    1006.18  E(vib)   ...       0.02 
freq.    1013.21  E(vib)   ...       0.02 
freq.    1013.73  E(vib)   ...       0.02 
freq.    1032.09  E(vib)   ...       0.02 
freq.    1048.99  E(vib)   ...       0.02 
freq.    1064.45  E(vib)   ...       0.02 
freq.    1089.05  E(vib)   ...       0.02 
freq.    1099.97  E(vib)   ...       0.02 
freq.    1121.54  E(vib)   ...       0.01 
freq.    1134.67  E(vib)   ...       0.01 
freq.    1159.00  E(vib)   ...       0.01 
freq.    1175.05  E(vib)   ...       0.01 
freq.    1179.80  E(vib)   ...       0.01 
freq.    1196.69  E(vib)   ...       0.01 
freq.    1205.43  E(vib)   ...       0.01 
freq.    1225.58  E(vib)   ...       0.01 
freq.    1239.88  E(vib)   ...       0.01 
freq.    1274.46  E(vib)   ...       0.01 
freq.    1288.95  E(vib)   ...       0.01 
freq.    1307.92  E(vib)   ...       0.01 
freq.    1336.71  E(vib)   ...       0.01 
freq.    1359.02  E(vib)   ...       0.01 
freq.    1365.38  E(vib)   ...       0.01 
freq.    1438.70  E(vib)   ...       0.00 
freq.    1445.17  E(vib)   ...       0.00 
freq.    1446.86  E(vib)   ...       0.00 
freq.    1467.12  E(vib)   ...       0.00 
freq.    1472.27  E(vib)   ...       0.00 
freq.    1482.37  E(vib)   ...       0.00 
freq.    1485.37  E(vib)   ...       0.00 
freq.    1491.80  E(vib)   ...       0.00 
freq.    1498.48  E(vib)   ...       0.00 
freq.    1499.83  E(vib)   ...       0.00 
freq.    1540.11  E(vib)   ...       0.00 
freq.    1556.56  E(vib)   ...       0.00 
freq.    1581.87  E(vib)   ...       0.00 
freq.    1644.43  E(vib)   ...       0.00 
freq.    1673.89  E(vib)   ...       0.00 
freq.    1686.32  E(vib)   ...       0.00 
freq.    1705.63  E(vib)   ...       0.00 
freq.    1734.65  E(vib)   ...       0.00 
freq.    3050.12  E(vib)   ...       0.00 
freq.    3053.52  E(vib)   ...       0.00 
freq.    3106.11  E(vib)   ...       0.00 
freq.    3114.98  E(vib)   ...       0.00 
freq.    3173.27  E(vib)   ...       0.00 
freq.    3193.49  E(vib)   ...       0.00 
freq.    3196.64  E(vib)   ...       0.00 
freq.    3198.70  E(vib)   ...       0.00 
freq.    3201.78  E(vib)   ...       0.00 
freq.    3202.85  E(vib)   ...       0.00 
freq.    3212.63  E(vib)   ...       0.00 
freq.    3214.80  E(vib)   ...       0.00 
freq.    3225.57  E(vib)   ...       0.00 
freq.    3227.25  E(vib)   ...       0.00 

------------
INNER ENERGY
------------

The inner energy is: U= E(el) + E(ZPE) + E(vib) + E(rot) + E(trans)
    E(el)   - is the total energy from the electronic structure calculation
              = E(kin-el) + E(nuc-el) + E(el-el) + E(nuc-nuc)
    E(ZPE)  - the the zero temperature vibrational energy from the frequency calculation
    E(vib)  - the the finite temperature correction to E(ZPE) due to population
              of excited vibrational states
    E(rot)  - is the rotational thermal energy
    E(trans)- is the translational thermal energy

Summary of contributions to the inner energy U:
Electronic energy                ...   -877.99529920 Eh
Zero point energy                ...      0.27194291 Eh     170.65 kcal/mol
Thermal vibrational correction   ...      0.01383234 Eh       8.68 kcal/mol
Thermal rotational correction    ...      0.00141627 Eh       0.89 kcal/mol
Thermal translational correction ...      0.00141627 Eh       0.89 kcal/mol
-----------------------------------------------------------------------
Total thermal energy                   -877.70669141 Eh


Summary of corrections to the electronic energy:
(perhaps to be used in another calculation)
Total thermal correction                  0.01666489 Eh      10.46 kcal/mol
Non-thermal (ZPE) correction              0.27194291 Eh     170.65 kcal/mol
-----------------------------------------------------------------------
Total correction                          0.28860779 Eh     181.10 kcal/mol


--------
ENTHALPY
--------

The enthalpy is H = U + kB*T
                kB is Boltzmann's constant
Total thermal energy              ...   -877.70669141 Eh 
Thermal Enthalpy correction       ...      0.00094421 Eh       0.59 kcal/mol
-----------------------------------------------------------------------
Total Enthalpy                    ...   -877.70574720 Eh


Note: Only C1 symmetry has been detected, increase convergence thresholds 
      if your molecule has a higher symmetry. Symmetry factor of 1.0 is   
      used for the rotational entropy correction. 
 

Note: Rotational entropy computed according to Herzberg 
Infrared and Raman Spectra, Chapter V,1, Van Nostrand Reinhold, 1945 
Point Group:  C1, Symmetry Number:   1  
Rotational constants in cm-1:     0.016346     0.011136     0.007222 

Vibrational entropy computed according to the QRRHO of S. Grimme
Chem.Eur.J. 2012 18 9955 using a reference frequency of 100.0 cm-1


-------
ENTROPY
-------

The entropy contributions are T*S = T*(S(el)+S(vib)+S(rot)+S(trans))
     S(el)   - electronic entropy
     S(vib)  - vibrational entropy
     S(rot)  - rotational entropy
     S(trans)- translational entropy
The entropies will be listed as multiplied by the temperature to get
units of energy

Electronic entropy                ...      0.00000000 Eh      0.00 kcal/mol
Vibrational entropy               ...      0.02434449 Eh     15.28 kcal/mol
Rotational entropy                ...      0.01590385 Eh      9.98 kcal/mol
Translational entropy             ...      0.02025841 Eh     12.71 kcal/mol
-----------------------------------------------------------------------
Final entropy term                ...      0.06050675 Eh     37.97 kcal/mol

In case the symmetry of your molecule has not been determined correctly
or in case you have a reason to use a different symmetry number we print 
out the resulting rotational entropy values for sn=1,12:

 non-linear molecules -----------------------------------
|  sn= 1 | S(rot)=       0.01590385 Eh      9.98 kcal/mol|
|  sn= 2 | S(rot)=       0.01524939 Eh      9.57 kcal/mol|
|  sn= 3 | S(rot)=       0.01486656 Eh      9.33 kcal/mol|
|  sn= 4 | S(rot)=       0.01459494 Eh      9.16 kcal/mol|
|  sn= 5 | S(rot)=       0.01438425 Eh      9.03 kcal/mol|
|  sn= 6 | S(rot)=       0.01421210 Eh      8.92 kcal/mol|
|  sn= 7 | S(rot)=       0.01406656 Eh      8.83 kcal/mol|
|  sn= 8 | S(rot)=       0.01394048 Eh      8.75 kcal/mol|
|  sn= 9 | S(rot)=       0.01382927 Eh      8.68 kcal/mol|
|  sn=10 | S(rot)=       0.01372979 Eh      8.62 kcal/mol|
|  sn=11 | S(rot)=       0.01363980 Eh      8.56 kcal/mol|
|  sn=12 | S(rot)=       0.01355765 Eh      8.51 kcal/mol|
 linear molecules ---------------------------------------
|  Dinfh | S(rot)=       0.00998122 Eh      6.26 kcal/mol|
|  Cinfv | S(rot)=       0.01063568 Eh      6.67 kcal/mol|
 --------------------------------------------------------


-------------------
GIBBS FREE ENERGY
-------------------

The Gibbs free energy is G = H - T*S

Total enthalpy                    ...   -877.70574720 Eh 
Total entropy correction          ...     -0.06050675 Eh    -37.97 kcal/mol
-----------------------------------------------------------------------
Final Gibbs free energy         ...   -877.76625395 Eh

For completeness - the Gibbs free energy minus the electronic energy
G-E(el)                           ...      0.22904525 Eh    143.73 kcal/mol


Maximum memory used throughout the entire PROP-calculation: 316.6 MB

--------------------------------
SUGGESTED CITATIONS FOR THIS RUN
--------------------------------

Below you find a list of papers that are relevant to this ORCA run
We neither can nor want to force you to cite these papers, but we appreciate if you do
You receive ORCA, which is the product of decades of hard work by many enthusiastic individuals, for free
The only thing we kindly ask in return is that you cite our papers,
We deeply appreciate it, if you show your appreciation for ORCA by not just citing the generic ORCA reference.

Please note that relegating all ORCA citations to the supporting information does *not* help us.
SI sections are not indexed - citations you put there will not count into any citation statistics
But we need these citations in order to attract the funding resources that allow us to do what we are doing

Therefore, if you are a happy ORCA user, please consider citing a few of the papers listed below in the main body of your paper

In addition to the list printed below, the program has created the file hbq-gs.bibtex that contains the list in bibtex format
You can import this file easily into all common literature databanks and citation aid programs


List of essential papers. We consider these as the minimum necessary citations

  1. Neese,F.
     Software update: the ORCA program system, version 5.0
     WIRES Comput. Molec. Sci., 2022 12(1)e1606
     doi.org/10.1002/wcms.1606

List of papers to cite with high priority. The work reported in these papers was absolutely
necessary for this run to complete.
Our perspective: the developers of density functionals and basis sets usually get cited in chemistry papers
Good! But without the algorithms to do something with them, the functionals or basis sets would not do anything.
Hence, in our opinion, the algorithm design and method developments papers are equally worthy of getting cited

  1. Neese,F.
     An improvement of the resolution of the identity approximation for the formation of the Coulomb matrix
     J. Comp. Chem., 2003 24(14)1740-1747
     doi.org/10.1002/jcc.10318
  2. Neese,F.; Wennmohs,F.; Hansen,A.; Becker,U.
     Efficient, approximate and parallel Hartree-Fock and hybrid DFT calculations. A 'chain-of-spheres' algorithm for the Hartree-Fock exchange
     Chem. Phys., 2009 356(1-3)98-109
     doi.org/10.1016/j.chemphys.2008.10.036
  3. Bykov,D.; Petrenko,T.; Izsak,R.; Kossmann,S.; Becker,U.; Valeev,E.; Neese,F.
     Efficient implementation of the analytic second derivatives of Hartree-Fock and hybrid DFT energies: a detailed analysis of different approximations
     Molec. Phys., 2015 113 1961-1977
     doi.org/10.1080/00268976.2015.1025114
  4. Garcia-Rates,M.; Neese,F.
     Efficient implementation of the analytical second derivatives of hartree-fock and hybrid DFT energies within the framework of the conductor-like polarizable continuum model
     J. Comput. Chem., 2019 40 1816-1828
     doi.org/10.1002/jcc.25833
  5. Garcia-Rates,M.; Neese,F.
     Effect of the Solute Cavity on the Solvation Energy and its Derivatives within the Framework of the Gaussian Charge Scheme
     J. Comput. Chem., 2020 41 922-939
     doi.org/10.1002/jcc.26139
  6. Helmich-Paris,B.; de Souza,B.; Neese,F.; Izsák,R.
     An improved chain of spheres for exchange algorithm
     J. Chem. Phys., 2021 155 104109
     doi.org/doi: 10.1063/5.0058766.
  7. Neese,F.
     The SHARK Integral Generation and Digestion System
     J. Comp. Chem., 2022  1-16
     doi.org/10.1002/jcc.26942

List of suggested additional citations. These are papers that are important in the 'surrounding' of 
of this run, or papers that preceded the highly important papers. If you like your results we are grateful for a citation.

  1. Izsak,R.; Neese,F.
     An overlap fitted chain of spheres exchange method
     J. Chem. Phys., 2011 135 144105
     doi.org/10.1063/1.3646921
  2. Izsak,R.; Hansen,A.; Neese,F.
     The resolution of identity and chain of spheres approximations for the LPNO-CCSD singles Fock term
     Molec. Phys., 2012 110 2413-2417
     doi.org/10.1080/00268976.2012.687466
  3. Neese,F.
     The ORCA program system
     WIRES Comput. Molec. Sci., 2012 2(1)73-78
     doi.org/10.1002/wcms.81
  4. Izsak,R.; Neese,F.; Klopper,W.
     Robust fitting techniques in the chain of spheres approximation to the Fock exchange: The role of the complementary space
     J. Chem. Phys., 2013 139 
     doi.org/10.1063/1.4819264
  5. Neese,F.
     Software update: the ORCA program system, version 4.0
     WIRES Comput. Molec. Sci., 2018 8(1)1-6
     doi.org/10.1002/wcms.1327
  6. Neese,F.; Wennmohs,F.; Becker,U.; Riplinger,C.
     The ORCA quantum chemistry program package
     J. Chem. Phys., 2020 152 Art. No. L224108
     doi.org/10.1063/5.0004608

List of optional additional citations

  1. Neese,F.
     Approximate second-order SCF convergence for spin unrestricted wavefunctions
     Chem. Phys. Lett., 2000 325(1-3)93-98
     doi.org/10.1016/s0009-2614(00)00662-x

Timings for individual modules:

Sum of individual times          ...    44389.751 sec (= 739.829 min)
Startup calculation              ...     2459.459 sec (=  40.991 min)   5.5 %
SCF iterations                   ...    27376.358 sec (= 456.273 min)  61.7 %
Property integrals               ...     1796.280 sec (=  29.938 min)   4.0 %
SCF Response                     ...     9516.017 sec (= 158.600 min)  21.4 %
Property calculations            ...      583.418 sec (=   9.724 min)   1.3 %
SCF Gradient evaluation          ...     2653.896 sec (=  44.232 min)   6.0 %
Geometry relaxation              ...        4.324 sec (=   0.072 min)   0.0 %
                             ****ORCA TERMINATED NORMALLY****
TOTAL RUN TIME: 0 days 12 hours 40 minutes 16 seconds 397 msec
