
                                 *****************
                                 * O   R   C   A *
                                 *****************

                                            #,                                       
                                            ###                                      
                                            ####                                     
                                            #####                                    
                                            ######                                   
                                           ########,                                 
                                     ,,################,,,,,                         
                               ,,#################################,,                 
                          ,,##########################################,,             
                       ,#########################################, ''#####,          
                    ,#############################################,,   '####,        
                  ,##################################################,,,,####,       
                ,###########''''           ''''###############################       
              ,#####''   ,,,,##########,,,,          '''####'''          '####       
            ,##' ,,,,###########################,,,                        '##       
           ' ,,###''''                  '''############,,,                           
         ,,##''                                '''############,,,,        ,,,,,,###''
      ,#''                                            '''#######################'''  
     '                                                          ''''####''''         
             ,#######,   #######,   ,#######,      ##                                
            ,#'     '#,  ##    ##  ,#'     '#,    #''#        ,####,   ,####,        
            ##       ##  ##   ,#'  ##            #'  '#       #'       #'  '#        
            ##       ##  #######   ##           ,######,      #####,   #    #        
            '#,     ,#'  ##    ##  '#,     ,#' ,#      #,     #,   #   #,  ,#        
             '#######'   ##     ##  '#######'  #'      '#     '####' # '####'        



                #########################################################
                #                        -***-                          #
                #          Department of theory and spectroscopy        #
                #                                                       #
                #                      Frank Neese                      #
                #                                                       #
                #     Directorship, Architecture, Infrastructure        #
                #                    SHARK, DRIVERS                     #
                #        Core code/Algorithms in most modules           #
                #                                                       #
                #        Max Planck Institute fuer Kohlenforschung      #
                #                Kaiser Wilhelm Platz 1                 #
                #                 D-45470 Muelheim/Ruhr                 #
                #                      Germany                          #
                #                                                       #
                #                  All rights reserved                  #
                #                        -***-                          #
                #########################################################


                         Program Version 6.0.1  -  RELEASE   -


 With contributions from (in alphabetic order):
[Max-Planck-Institut fuer Kohlenforschung]                               
  Daniel Aravena         : Magnetic Suceptibility                        
  Michael Atanasov       : Ab Initio Ligand Field Theory (pilot matlab implementation)
  Alexander A. Auer      : GIAO ZORA, VPT2 properties, NMR spectrum      
  Ute Becker             : All parallelization in ORCA, NUMFREQ, NUMCALC 
  Giovanni Bistoni       : ED, misc. LED, open-shell LED, HFLD           
  Martin Brehm           : Molecular dynamics                            
  Dmytro Bykov           : pre 5.0 version of the SCF Hessian            
  Marcos Casanova-Páez   : Triplet and SCS-CIS(D). UHF-(DLPNO)-IP/EA/STEOM-CCSD. UHF-CVS-IP/STEOM-CCSD   
  Vijay G. Chilkuri      : MRCI spin determinant printing, contributions to CSF-ICE 
  Pauline Colinet        : FMM embedding                                 
  Dipayan Datta          : RHF DLPNO-CCSD density                        
  Achintya Kumar Dutta   : EOM-CC, STEOM-CC                              
  Nicolas Foglia         : Exact transition moments, OPA infrastructure, MCD improvements    
  Dmitry Ganyushin       : Spin-Orbit,Spin-Spin,Magnetic field MRCI      
  Miquel Garcia-Rates    : C-PCM and meta-GGA Hessian, CCSD/C-PCM, Gaussian charge scheme 
  Tiago L. C. Gouveia    : GS-ROHF, GS-ROCIS                             
  Yang Guo               : DLPNO-NEVPT2, F12-NEVPT2, CIM, IAO-localization        
  Andreas Hansen         : Spin unrestricted coupled pair/coupled cluster methods 
  Ingolf Harden          : AUTO-CI MPn and infrastructure                
  Benjamin Helmich-Paris : MC-RPA, TRAH-(SCF,CASSCF), AVAS, COSX integrals, SCF dyn. polar. 
  Lee Huntington         : MR-EOM, pCC                                   
  Robert Izsak           : Overlap fitted RIJCOSX, COSX-SCS-MP3, EOM     
  Riya Kayal             : Wick's Theorem for AUTO-CI, AUTO-CI UHF-CCSDT 
  Emily Kempfer          : AUTO-CI, RHF CISDT and CCSDT                  
  Christian Kollmar      : KDIIS, OOCD, Brueckner-CCSD(T), CCSD density, CASPT2, CASPT2-K, improved NEVPT2 
  Axel Koslowski         : Symmetry handling                             
  Simone Kossmann        : meta-GGA functionals, TD-DFT gradient, OOMP2, (MP2 Hessian; deprecated post 5.0) 
  Lucas Lang             : DCDCAS                                        
  Marvin Lechner         : AUTO-CI (C++ implementation), FIC-MRCC        
  Spencer Leger          : CASSCF response                               
  Dagmar Lenk            : GEPOL surface, SMD, ORCA-2-JSON               
  Dimitrios Liakos       : Extrapolation schemes; Compound Job, initial MDCI parallelization 
  Dimitrios Manganas     : Further ROCIS development; embedding schemes. LFT, Crystal Embedding 
  Dimitrios Pantazis     : SARC Basis sets                               
  Anastasios Papadopoulos: AUTO-CI, single reference methods and gradients 
  Taras Petrenko         : pre 6.0 DFT Hessian and TD-DFT gradient, (ASA, deprecated), ECA, 1-Electron XAS/XES, NRVS 
  Peter Pinski           : DLPNO-MP2, DLPNO-MP2 Gradient                 
  Christoph Reimann      : Effective Core Potentials                     
  Marius Retegan         : Local ZFS, SOC                                
  Christoph Riplinger    : Optimizer, TS searches, QM/MM, DLPNO-CCSD(T), (RO)-DLPNO pert. Triples 
  Michael Roemelt        : Original ROCIS implementation                 
  Masaaki Saitow         : Open-shell DLPNO-CCSD energy and density      
  Barbara Sandhoefer     : DKH picture change effects                    
  Kantharuban Sivalingam : CASSCF convergence/infrastructure, NEVPT2 and variants, FIC-MRCI 
  Bernardo de Souza      : ESD, SOC TD-DFT                               
  Georgi L. Stoychev     : AutoAux, RI-MP2 NMR, DLPNO-MP2 response, X2C  
  Van Anh Tran           : RI-MP2 g-tensors                              
  Willem Van den Heuvel  : Paramagnetic NMR                              
  Zikuan Wang            : NOTCH, Electric field optimization            
  Frank Wennmohs         : Technical directorship and infrastructure     
  Hang Xu                : AUTO-CI-Response properties                   
                                                                         
[FACCTs GmbH]                                                            
  Markus Bursch, Miquel Garcia-Rates, Christoph Riplinger, Bernardo de Souza, Georgi L. Stoychev 
                                                                 
  APM, Basis sets (HGBS, AHGBS, def-TZVP (Ac-Lr), def2-XVPD (La-Lu)), CI-OPT, improved COSX, DLPNO-Multilevel,           
  DOCKER, DRACO, updates on ESD, GOAT, IRC, LR-CPCM, MBIS, meta-GGA TD-DFT gradient, ML-optimized integration grids, 
  MM, NACMEs, nearIR, NEB, NEB-TS, NL-DFT gradient (VV10), 2- and 3-layer-ONIOM, interface openCOSMO-RS, QMMM,   
  Crystal-QMMM, SF, symmetry and pop. for TD-DFT, r2SCAN hybrids, SOLVATOR                                   
                                                                         
[Other institutions]                                                     
  V. Asgeirsson          : NEB                                           
  Christoph Bannwarth    : sTDA-DFT, sTD-DFT, PBEh-3c, B97-3c, D3        
  Sebastian Ehlert       : rSCAN, r2SCAN, r2SCAN-3c, D4, dhf basis sets  
  Marvin Friede          : D4 for Fr, Ra, Ac-Lr                          
  Lars Goerigk           : TD-DFT with DH, B97 family of functionals     
  Stefan Grimme          : VdW corrections, initial TS optimization, DFT functionals, gCP, sTDA/sTD-DF 
  Waldemar Hujo          : DFT-NL                                        
  H. Jonsson             : NEB                                           
  Holger Kruse           : gCP                                           
  Marcel Mueller         : wB97X-3c, vDZP basis set                      
  Hagen Neugebauer       : wr2SCAN                                       
  Tobias Risthaus        : range-separated hybrid DFT                    
  Lukas Wittmann         : regularized MP2, r2SCAN double-hybrids, wr2SCAN        
                                                                         
We gratefully acknowledge several colleagues who have allowed us to      
interface, adapt or use parts of their codes:                            
  Ed Valeev, F. Pavosevic, A. Kumar             : LibInt (2-el integral package), F12 methods 
  Garnet Chan, S. Sharma, J. Yang, R. Olivares  : DMRG                   
  Ulf Ekstrom                                   : XCFun DFT Library      
  Mihaly Kallay                                 : mrcc  (arbitrary order and MRCC methods)
  Frank Weinhold                                : gennbo (NPA and NBO analysis)           
  Simon Mueller                                 : openCOSMO-RS                            
  Christopher J. Cramer and Donald G. Truhlar   : smd solvation model                     
  S Lehtola, MJT Oliveira, MAL Marques          : LibXC Library                           
  Liviu Ungur et al                             : ANISO software                          


 Your calculation uses the libint2 library for the computation of 2-el integrals
 For citations please refer to: http://libint.valeyev.net

 Your ORCA version has been built with support for libXC version: 6.2.2
 For citations please refer to: https://libxc.gitlab.io

 This ORCA versions uses:
   CBLAS   interface :  Fast vector & matrix operations
   LAPACKE interface :  Fast linear algebra routines
   SCALAPACK package :  Parallel linear algebra routines
   Shared memory     :  Shared parallel matrices
   BLAS/LAPACK       :  OpenBLAS 0.3.27  USE64BITINT DYNAMIC_ARCH NO_AFFINITY Cooperlake SINGLE_THREADED
        Core in use  :  Cooperlake
   Copyright (c) 2011-2014, The OpenBLAS Project


Warning: RI is on but no J-basis has been assigned. Assigning Def2/J (nothing to worry about!)
================================================================================

----- Orbital basis set information -----
Your calculation utilizes the basis: 6-311G*
   H, Li - Ne  : R. Krishnan, J. S. Binkley, R. Seeger and J. A. Pople, J. Chem. Phys. 72, 650 (1980).
   Na - Ar     : A. D. McLean and G. S. Chandler J. Chem. Phys. 72, 5639, (1980).
   K  - Ca     : J.-P. Blaudeau, M. P. McGrath, L. A. Curtiss and L. Radom, J. Chem. Phys. 107, 5016 (1997).
   Ga - Kr     : L. A. Curtiss, M. P. McGrath, J.-P. Blandeau, N. E. Davis, R. C. Binning and L. Radom, J. Chem. Phys. 103, 6104 (1995).
   Pol./Diff.
   H, Li - Cl  : T. Clark, J. Chandrasekhar and P. v. R. Schleyer, J. Comp. Chem. 4, 294 (1983).
   H - Ne      : M. J. Frisch, J. A. Pople and J. S. Binkley, J. Chem. Phys. 80, 3265 (1984).

----- AuxJ basis set information -----
Your calculation utilizes the auxiliary basis: def2/J
   F. Weigend, Phys. Chem. Chem. Phys. 8, 1057 (2006).

================================================================================
                                        WARNINGS
                       Please study these warnings very carefully!
================================================================================

INFO   : Checking CIS options ...

WARNING: (CIS/TDDFT): Analytic excited state gradients requested
  ===> : turning on equilibrium dielectric conditions.

WARNING: Analytical Frequencies for this method not available!
  ===> : Switching to Numerical Frequencies!

WARNING: Geometry Optimization
  ===> : Switching off AutoStart
         For restart on a previous wavefunction, please use MOREAD

WARNING: CIS/ROCIS methods need fully converged wavefunctions
  ===> : Setting SCFConvForced true
         You can overwrite this default with %scf ConvForced false 


================================================================================
                                       INPUT FILE
================================================================================
NAME = 3.inp
|  1> ! B3LYP/G OPT FREQ 6-311G* CPCM(Water)
|  2> 
|  3> %tddft
|  4>     NRoots 3
|  5>     IRoot 1
|  6> end 
|  7> 
|  8> * xyz 0 1 
|  9> C  -3.17282181933942108998 -0.72298139733973276755 -0.32705670606900416608
| 10> C  -2.69037638358254760362 -1.67367874990712595107 -1.22467455858177398653
| 11> C  -1.34735141127269275607 -1.74600343523878809293 -1.48703196670889714603
| 12> C  -2.30780102521713503805 0.14685678327596130011 0.29958985238513841098
| 13> C  -0.91860163270237682465 0.10012033921434504435 0.05326769541519826845
| 14> O  -2.80039310143607611536 1.05878175090601933661 1.21920598733154550430
| 15> C  -0.44509367410599454118 -0.86986927991730755849 -0.86312582939748905275
| 16> C  0.94688197401696094779 -0.94341280380425196483 -1.16145485822880267790
| 17> C  1.83405798609766823581 -0.09389034428455511616 -0.59729757898922675174
| 18> C  0.02849865832756992567 0.99296441552410574793 0.67271019178450319753
| 19> C  1.40035513193031957435 0.89460628695993760218 0.32835468479161300515
| 20> N  -0.40232631059562518061 1.90019779702223812201 1.56183352542628917092
| 21> C  0.45915793776724656006 2.72279355563820546493 2.10880894869473412001
| 22> C  1.82782359688693962774 2.71920906218230218343 1.82696110231723962691
| 23> C  2.29754990188751762048 1.79098907010168550968 0.93104686198945862952
| 24> C  -3.71386291688628755736 1.97194188603786857428 0.80566054525648012063
| 25> O  -4.13680213907804716911 2.02641208397079175541 -0.34213943517507483527
| 26> N  -4.07689890960657219665 2.79871045485984915047 1.78898024838363145506
| 27> C  -3.51861813671623657740 2.73299422200073305333 3.12245076034527180298
| 28> C  -5.10457544432298870873 3.79101490101103077990 1.56652654065346630397
| 29> H  -5.46796717050829705897 3.69490448443293661995 0.54563964015537902430
| 30> H  -4.69513431505454992276 4.79094374462168115514 1.71226296438636715891
| 31> H  -5.92683044949372117571 3.63094013819908756346 2.26441986551258267468
| 32> H  -2.53816130748590929045 2.26630852217879752430 3.08025999080462220547
| 33> H  -4.16926540431060299596 2.15719996026347082818 3.78314470122325285928
| 34> H  -3.42473209310730464239 3.74712816199290710273 3.50572304517920141365
| 35> H  -0.96347025233273320133 -2.47522388215560251723 -2.18335154945832865536
| 36> H  -4.22986503383935552591 -0.65048616249954305246 -0.12087398937756421713
| 37> H  -3.38428203379895142788 -2.34490187032552732660 -1.70496454704522881762
| 38> H  1.27123103010974802807 -1.69778422962584274458 -1.86165447583588261615
| 39> H  2.88678971009763785105 -0.14486164751454055910 -0.83174302072788419693
| 40> H  0.03944264191478930037 3.42710054755877946420 2.81485095323771083997
| 41> H  2.48495191699559292431 3.42484642714072107239 2.30864536688975352519
| 42> H  3.34665047550221306238 1.73395920937777359150 0.67940504304258519941
| 43> *
| 44> 
| 45>                          ****END OF INPUT****
================================================================================

                       *****************************
                       * Geometry Optimization Run *
                       *****************************

Geometry optimization settings:
Update method            Update   .... BFGS
Choice of coordinates    CoordSys .... (2022) Redundant Internals
Initial Hessian          InHess   .... Almloef's Model
Max. no of cycles        MaxIter  .... 102

Convergence Tolerances:
Energy Change            TolE     ....  5.0000e-06 Eh
Max. Gradient            TolMAXG  ....  3.0000e-04 Eh/bohr
RMS Gradient             TolRMSG  ....  1.0000e-04 Eh/bohr
Max. Displacement        TolMAXD  ....  4.0000e-03 bohr
RMS Displacement         TolRMSD  ....  2.0000e-03 bohr
Strict Convergence                .... False

------------------------------------------------------------------------------
                        ORCA OPTIMIZATION COORDINATE SETUP
------------------------------------------------------------------------------

The optimization will be done in redundant internal coordinates (2022)
Making redundant internal coordinates   ...  (2022 redundants) done
Evaluating the initial hessian          ...  (Almloef) done
Evaluating the coordinates              ...  done
Calculating the B-matrix                .... done
Calculating the G-matrix                .... done
Diagonalizing the G-matrix              .... done
Small eigenvalue found = 3.022e-03
Small eigenvalue found = 7.806e-03
Small eigenvalue found = 1.391e-02
Small eigenvalue found = 2.448e-02
The first mode is                       ....   77
The number of degrees of freedom        ....   96

    -----------------------------------------------------------------
                    Redundant Internal Coordinates


    -----------------------------------------------------------------
         Definition                    Initial Value    Approx d2E/dq
    -----------------------------------------------------------------
      1. B(C   1,C   0)                  1.3937         0.616445   
      2. B(C   2,C   1)                  1.3703         0.671639   
      3. B(C   3,C   0)                  1.3775         0.654105   
      4. B(C   4,C   3)                  1.4116         0.577045   
      5. B(O   5,C   3)                  1.3856         0.568670   
      6. B(C   6,C   4)                  1.4159         0.568020   
      7. B(C   6,C   2)                  1.4039         0.593690   
      8. B(C   7,C   6)                  1.4255         0.548436   
      9. B(C   8,C   7)                  1.3517         0.719239   
     10. B(C   9,C   4)                  1.4415         0.517128   
     11. B(C  10,C   9)                  1.4178         0.564074   
     12. B(C  10,C   8)                  1.4220         0.555521   
     13. B(N  11,C   9)                  1.3414         0.669101   
     14. B(C  12,N  11)                  1.3107         0.748778   
     15. B(C  13,C  12)                  1.3974         0.608064   
     16. B(C  14,C  13)                  1.3729         0.665266   
     17. B(C  14,C  10)                  1.4042         0.593101   
     18. B(C  15,O   5)                  1.3562         0.633554   
     19. B(O  16,C  15)                  1.2245         1.027998   
     20. B(N  17,C  15)                  1.3350         0.684864   
     21. B(C  18,N  17)                  1.4471         0.453684   
     22. B(C  19,N  17)                  1.4458         0.455917   
     23. B(H  20,C  19)                  1.0879         0.362904   
     24. B(H  21,C  19)                  1.0903         0.359713   
     25. B(H  22,C  19)                  1.0903         0.359686   
     26. B(H  23,C  18)                  1.0867         0.364520   
     27. B(H  24,C  18)                  1.0915         0.358106   
     28. B(H  25,C  18)                  1.0882         0.362489   
     29. B(H  26,C   2)                  1.0789         0.375111   
     30. B(H  27,C   0)                  1.0794         0.374397   
     31. B(H  28,C   1)                  1.0783         0.375919   
     32. B(H  29,C   7)                  1.0791         0.374747   
     33. B(H  30,C   8)                  1.0797         0.373952   
     34. B(H  31,C  12)                  1.0820         0.370852   
     35. B(H  32,C  13)                  1.0779         0.376536   
     36. B(H  33,C  14)                  1.0804         0.373074   
     37. A(C   1,C   0,C   3)          120.4219         0.437819   
     38. A(C   3,C   0,H  27)          119.0546         0.358491   
     39. A(C   1,C   0,H  27)          120.5203         0.354899   
     40. A(C   2,C   1,H  28)          120.8351         0.360359   
     41. A(C   0,C   1,C   2)          119.9068         0.439914   
     42. A(C   0,C   1,H  28)          119.2580         0.355143   
     43. A(C   1,C   2,H  26)          120.5286         0.360227   
     44. A(C   1,C   2,C   6)          120.7874         0.436940   
     45. A(C   6,C   2,H  26)          118.6830         0.352758   
     46. A(C   4,C   3,O   5)          119.1730         0.419188   
     47. A(C   0,C   3,C   4)          121.1772         0.432644   
     48. A(C   0,C   3,O   5)          119.6207         0.428690   
     49. A(C   3,C   4,C   9)          123.4421         0.414845   
     50. A(C   3,C   4,C   6)          117.6915         0.421841   
     51. A(C   6,C   4,C   9)          118.8629         0.413684   
     52. A(C   3,O   5,C  15)          118.6988         0.423469   
     53. A(C   4,C   6,C   7)          119.8245         0.418033   
     54. A(C   2,C   6,C   7)          120.1568         0.421341   
     55. A(C   2,C   6,C   4)          120.0147         0.423991   
     56. A(C   6,C   7,H  29)          117.7330         0.348010   
     57. A(C   6,C   7,C   8)          121.4092         0.436089   
     58. A(C   8,C   7,H  29)          120.8561         0.364402   
     59. A(C   7,C   8,H  30)          121.3084         0.364270   
     60. A(C  10,C   8,H  30)          118.1339         0.348639   
     61. A(C   7,C   8,C  10)          120.5576         0.437099   
     62. A(C   4,C   9,C  10)          119.2347         0.413172   
     63. A(C  10,C   9,N  11)          121.2440         0.429811   
     64. A(C   4,C   9,N  11)          119.5213         0.423173   
     65. A(C   9,C  10,C  14)          118.0148         0.423387   
     66. A(C   8,C  10,C  14)          121.8897         0.422233   
     67. A(C   8,C  10,C   9)          120.0948         0.418470   
     68. A(C   9,N  11,C  12)          119.3397         0.449386   
     69. A(N  11,C  12,H  31)          115.2059         0.363985   
     70. A(N  11,C  12,C  13)          123.9154         0.444594   
     71. A(C  13,C  12,H  31)          120.8786         0.353506   
     72. A(C  12,C  13,H  32)          120.3525         0.354418   
     73. A(C  12,C  13,C  14)          117.9343         0.438075   
     74. A(C  14,C  13,H  32)          121.7124         0.359875   
     75. A(C  10,C  14,H  33)          119.1296         0.352374   
     76. A(C  10,C  14,C  13)          119.5432         0.436111   
     77. A(C  13,C  14,H  33)          121.3271         0.359309   
     78. A(O  16,C  15,N  17)          124.6786         0.478233   
     79. A(O   5,C  15,N  17)          112.0580         0.437844   
     80. A(O   5,C  15,O  16)          123.2600         0.471433   
     81. A(C  18,N  17,C  19)          116.5625         0.383990   
     82. A(C  15,N  17,C  19)          120.3324         0.412809   
     83. A(C  15,N  17,C  18)          123.0716         0.412449   
     84. A(H  24,C  18,H  25)          109.2598         0.290888   
     85. A(H  23,C  18,H  25)          109.6371         0.291701   
     86. A(N  17,C  18,H  25)          108.3917         0.333239   
     87. A(H  23,C  18,H  24)          109.5592         0.291143   
     88. A(N  17,C  18,H  24)          110.5947         0.332568   
     89. A(N  17,C  18,H  23)          109.3783         0.333548   
     90. A(H  21,C  19,H  22)          109.4082         0.290738   
     91. A(H  20,C  19,H  22)          109.6201         0.291142   
     92. A(N  17,C  19,H  22)          109.6822         0.333082   
     93. A(H  20,C  19,H  21)          109.3841         0.291145   
     94. A(N  17,C  19,H  21)          109.9964         0.333086   
     95. A(N  17,C  19,H  20)          108.7348         0.333574   
     96. D(H  28,C   1,C   0,C   3)   -179.9697         0.026277   
     97. D(C   2,C   1,C   0,C   3)      0.0195         0.026277   
     98. D(H  28,C   1,C   0,H  27)     -0.6289         0.026277   
     99. D(C   2,C   1,C   0,H  27)    179.3604         0.026277   
    100. D(C   6,C   2,C   1,C   0)     -0.1147         0.031560   
    101. D(H  26,C   2,C   1,C   0)   -179.7336         0.031560   
    102. D(C   6,C   2,C   1,H  28)    179.8744         0.031560   
    103. D(H  26,C   2,C   1,H  28)      0.2555         0.031560   
    104. D(O   5,C   3,C   0,C   1)   -178.0667         0.029817   
    105. D(C   4,C   3,C   0,H  27)   -179.3942         0.029817   
    106. D(C   4,C   3,C   0,C   1)     -0.0437         0.029817   
    107. D(O   5,C   3,C   0,H  27)      2.5828         0.029817   
    108. D(C   6,C   4,C   3,O   5)    178.1888         0.022866   
    109. D(C   9,C   4,C   3,C   0)    179.4633         0.022866   
    110. D(C   9,C   4,C   3,O   5)     -2.5049         0.022866   
    111. D(C   6,C   4,C   3,C   0)      0.1571         0.022866   
    112. D(C  15,O   5,C   3,C   4)    121.2958         0.023468   
    113. D(C  15,O   5,C   3,C   0)    -60.6414         0.023468   
    114. D(C   7,C   6,C   4,C   9)     -0.3176         0.022126   
    115. D(C   7,C   6,C   4,C   3)    179.0213         0.022126   
    116. D(C   2,C   6,C   4,C   9)   -179.5875         0.022126   
    117. D(C   2,C   6,C   4,C   3)     -0.2485         0.022126   
    118. D(C   7,C   6,C   2,H  26)      0.5913         0.024271   
    119. D(C   7,C   6,C   2,C   1)   -179.0346         0.024271   
    120. D(C   4,C   6,C   2,H  26)    179.8587         0.024271   
    121. D(C   4,C   6,C   2,C   1)      0.2328         0.024271   
    122. D(H  29,C   7,C   6,C   4)    179.7711         0.020572   
    123. D(H  29,C   7,C   6,C   2)     -0.9601         0.020572   
    124. D(C   8,C   7,C   6,C   4)     -0.6985         0.020572   
    125. D(C   8,C   7,C   6,C   2)    178.5703         0.020572   
    126. D(C  10,C   8,C   7,C   6)      0.7166         0.036606   
    127. D(H  30,C   8,C   7,H  29)      0.1160         0.036606   
    128. D(H  30,C   8,C   7,C   6)   -179.3998         0.036606   
    129. D(C  10,C   8,C   7,H  29)   -179.7676         0.036606   
    130. D(N  11,C   9,C   4,C   6)   -178.7485         0.018233   
    131. D(N  11,C   9,C   4,C   3)      1.9530         0.018233   
    132. D(C  10,C   9,C   4,C   6)      1.2839         0.018233   
    133. D(C  10,C   9,C   4,C   3)   -178.0146         0.018233   
    134. D(C  14,C  10,C   9,N  11)     -0.9659         0.021807   
    135. D(C  14,C  10,C   9,C   4)    179.0011         0.021807   
    136. D(C   8,C  10,C   9,N  11)    178.7455         0.021807   
    137. D(C   8,C  10,C   9,C   4)     -1.2875         0.021807   
    138. D(C  14,C  10,C   8,H  30)      0.1031         0.021126   
    139. D(C  14,C  10,C   8,C   7)    179.9903         0.021126   
    140. D(C   9,C  10,C   8,H  30)   -179.5968         0.021126   
    141. D(C   9,C  10,C   8,C   7)      0.2903         0.021126   
    142. D(C  12,N  11,C   9,C  10)      0.9234         0.033250   
    143. D(C  12,N  11,C   9,C   4)   -179.0435         0.033250   
    144. D(H  31,C  12,N  11,C   9)    179.9196         0.042567   
    145. D(C  13,C  12,N  11,C   9)     -0.1699         0.042567   
    146. D(H  32,C  13,C  12,H  31)     -0.2861         0.025527   
    147. D(H  32,C  13,C  12,N  11)    179.8082         0.025527   
    148. D(C  14,C  13,C  12,H  31)    179.3832         0.025527   
    149. D(C  14,C  13,C  12,N  11)     -0.5225         0.025527   
    150. D(H  33,C  14,C  13,H  32)      0.1849         0.030919   
    151. D(H  33,C  14,C  13,C  12)   -179.4797         0.030919   
    152. D(C  10,C  14,C  13,H  32)   -179.8921         0.030919   
    153. D(C  10,C  14,C  13,C  12)      0.4433         0.030919   
    154. D(H  33,C  14,C  10,C   9)   -179.8190         0.024221   
    155. D(H  33,C  14,C  10,C   8)      0.4751         0.024221   
    156. D(C  13,C  14,C  10,C   9)      0.2563         0.024221   
    157. D(C  13,C  14,C  10,C   8)   -179.4496         0.024221   
    158. D(O  16,C  15,O   5,C   3)      0.6102         0.029544   
    159. D(N  17,C  15,O   5,C   3)   -178.7537         0.029544   
    160. D(C  19,N  17,C  15,O  16)      4.4693         0.038647   
    161. D(C  19,N  17,C  15,O   5)   -176.1775         0.038647   
    162. D(C  18,N  17,C  15,O  16)   -177.7124         0.038647   
    163. D(C  18,N  17,C  15,O   5)      1.6408         0.038647   
    164. D(H  25,C  18,N  17,C  15)    143.7088         0.017562   
    165. D(H  24,C  18,N  17,C  19)     81.3579         0.017562   
    166. D(H  24,C  18,N  17,C  15)    -96.5369         0.017562   
    167. D(H  23,C  18,N  17,C  19)   -157.8927         0.017562   
    168. D(H  23,C  18,N  17,C  15)     24.2125         0.017562   
    169. D(H  22,C  19,N  17,C  15)    120.7507         0.017738   
    170. D(H  21,C  19,N  17,C  18)     63.1740         0.017738   
    171. D(H  21,C  19,N  17,C  15)   -118.8699         0.017738   
    172. D(H  20,C  19,N  17,C  18)   -177.0658         0.017738   
    173. D(H  20,C  19,N  17,C  15)      0.8903         0.017738   
    -----------------------------------------------------------------

Number of atoms                         .... 34
Number of degrees of freedom            .... 173


         *************************************************************
         *                GEOMETRY OPTIMIZATION CYCLE   1            *
         *************************************************************
---------------------------------
CARTESIAN COORDINATES (ANGSTROEM)
---------------------------------
  C     -3.172822   -0.722981   -0.327057
  C     -2.690376   -1.673679   -1.224675
  C     -1.347351   -1.746003   -1.487032
  C     -2.307801    0.146857    0.299590
  C     -0.918602    0.100120    0.053268
  O     -2.800393    1.058782    1.219206
  C     -0.445094   -0.869869   -0.863126
  C      0.946882   -0.943413   -1.161455
  C      1.834058   -0.093890   -0.597298
  C      0.028499    0.992964    0.672710
  C      1.400355    0.894606    0.328355
  N     -0.402326    1.900198    1.561834
  C      0.459158    2.722794    2.108809
  C      1.827824    2.719209    1.826961
  C      2.297550    1.790989    0.931047
  C     -3.713863    1.971942    0.805661
  O     -4.136802    2.026412   -0.342139
  N     -4.076899    2.798710    1.788980
  C     -3.518618    2.732994    3.122451
  C     -5.104575    3.791015    1.566527
  H     -5.467967    3.694904    0.545640
  H     -4.695134    4.790944    1.712263
  H     -5.926830    3.630940    2.264420
  H     -2.538161    2.266309    3.080260
  H     -4.169265    2.157200    3.783145
  H     -3.424732    3.747128    3.505723
  H     -0.963470   -2.475224   -2.183352
  H     -4.229865   -0.650486   -0.120874
  H     -3.384282   -2.344902   -1.704965
  H      1.271231   -1.697784   -1.861654
  H      2.886790   -0.144862   -0.831743
  H      0.039443    3.427101    2.814851
  H      2.484952    3.424846    2.308645
  H      3.346650    1.733959    0.679405

----------------------------
CARTESIAN COORDINATES (A.U.)
----------------------------
  NO LB      ZA    FRAG     MASS         X           Y           Z
   0 C     6.0000    0    12.011   -5.995764   -1.366237   -0.618048
   1 C     6.0000    0    12.011   -5.084075   -3.162794   -2.314300
   2 C     6.0000    0    12.011   -2.546125   -3.299468   -2.810083
   3 C     6.0000    0    12.011   -4.361112    0.277519    0.566143
   4 C     6.0000    0    12.011   -1.735906    0.189200    0.100661
   5 O     8.0000    0    15.999   -5.291976    2.000808    2.303965
   6 C     6.0000    0    12.011   -0.841105   -1.643815   -1.631071
   7 C     6.0000    0    12.011    1.789348   -1.782792   -2.194832
   8 C     6.0000    0    12.011    3.465867   -0.177427   -1.128729
   9 C     6.0000    0    12.011    0.053855    1.876431    1.271238
  10 C     6.0000    0    12.011    2.646288    1.690561    0.620500
  11 N     7.0000    0    14.007   -0.760287    3.590853    2.951438
  12 C     6.0000    0    12.011    0.867683    5.145334    3.985071
  13 C     6.0000    0    12.011    3.454086    5.138560    3.452456
  14 C     6.0000    0    12.011    4.341740    3.384479    1.759424
  15 C     6.0000    0    12.011   -7.018184    3.726430    1.522478
  16 O     8.0000    0    15.999   -7.817423    3.829364   -0.646550
  17 N     7.0000    0    14.007   -7.704222    5.288796    3.380683
  18 C     6.0000    0    12.011   -6.649225    5.164611    5.900577
  19 C     6.0000    0    12.011   -9.646250    7.163980    2.960306
  20 H     1.0000    0     1.008  -10.332960    6.982358    1.031109
  21 H     1.0000    0     1.008   -8.872518    9.053572    3.235708
  22 H     1.0000    0     1.008  -11.200086    6.861482    4.279133
  23 H     1.0000    0     1.008   -4.796430    4.282702    5.820848
  24 H     1.0000    0     1.008   -7.878770    4.076517    7.149107
  25 H     1.0000    0     1.008   -6.471806    7.081046    6.624856
  26 H     1.0000    0     1.008   -1.820695   -4.677495   -4.125936
  27 H     1.0000    0     1.008   -7.993286   -1.229241   -0.228419
  28 H     1.0000    0     1.008   -6.395366   -4.431222   -3.221916
  29 H     1.0000    0     1.008    2.402278   -3.208347   -3.518017
  30 H     1.0000    0     1.008    5.455242   -0.273749   -1.571767
  31 H     1.0000    0     1.008    0.074536    6.476281    5.319297
  32 H     1.0000    0     1.008    4.695879    6.472022    4.362707
  33 H     1.0000    0     1.008    6.324253    3.276708    1.283889

--------------------------------
INTERNAL COORDINATES (ANGSTROEM)
--------------------------------
 C      0   0   0     0.000000000000     0.00000000     0.00000000
 C      1   0   0     1.393663109869     0.00000000     0.00000000
 C      2   1   0     1.370320526722   119.90682930     0.00000000
 C      1   2   3     1.377521449540   120.42189236     0.00000000
 C      4   1   2     1.411642253682   121.17719238   359.95627745
 O      4   1   2     1.385621858876   119.62073130   181.93326333
 C      3   2   1     1.403901332207   120.78740555   359.88532223
 C      7   3   2     1.425484150847   120.15675689   180.96541366
 C      8   7   3     1.351681590227   121.40920893   178.57025111
 C      5   4   1     1.441484828980   123.44212370   179.46334875
 C     10   5   4     1.417831167952   119.23468756   181.98538114
 N     10   5   4     1.341351134036   119.52127959     1.95298706
 C     12  10   5     1.310725373955   119.33968305   180.95647623
 C     13  12  10     1.397389259854   123.91542062   359.83010690
 C     14  13  12     1.372915686169   117.93429563   359.47748477
 C      6   4   1     1.356211034019   118.69876774   299.35860126
 O     16   6   4     1.224454728934   123.26004726     0.61024744
 N     16   6   4     1.335012747864   112.05802681   181.24633255
 C     18  16   6     1.447114249433   123.07156199     1.64078871
 C     18  16   6     1.445777585226   120.33239009   183.82247342
 H     20  18  16     1.087888239868   108.73477280     0.89031839
 H     20  18  16     1.090293004574   109.99642558   241.13005168
 H     20  18  16     1.090312944113   109.68224968   120.75068276
 H     19  18  16     1.086678976256   109.37834425    24.21248723
 H     19  18  16     1.091511512624   110.59466964   263.46307162
 H     19  18  16     1.088200294868   108.39170369   143.70883232
 H      3   2   1     1.078882832244   120.52855420   180.26635966
 H      1   2   3     1.079401329005   120.52028994   179.36037533
 H      2   1   3     1.078296805988   119.25803451   180.01073270
 H      8   7   3     1.079146914364   117.73304043   359.03986164
 H      9   8   7     1.079725345456   121.30842953   180.60017082
 H     13  12  10     1.081991026127   115.20590298   179.91955671
 H     14  13  12     1.077850384168   120.35245617   179.80820981
 H     15  14  13     1.080364764149   121.32709711   180.52034462

---------------------------
INTERNAL COORDINATES (A.U.)
---------------------------
 C      0   0   0     0.000000000000     0.00000000     0.00000000
 C      1   0   0     2.633641600602     0.00000000     0.00000000
 C      2   1   0     2.589530511195   119.90682930     0.00000000
 C      1   2   3     2.603138283233   120.42189236     0.00000000
 C      4   1   2     2.667617258531   121.17719238   359.95627745
 O      4   1   2     2.618445838450   119.62073130   181.93326333
 C      3   2   1     2.652989036919   120.78740555   359.88532223
 C      7   3   2     2.693774653346   120.15675689   180.96541366
 C      8   7   3     2.554308025792   121.40920893   178.57025111
 C      5   4   1     2.724011552974   123.44212370   179.46334875
 C     10   5   4     2.679312611567   119.23468756   181.98538114
 N     10   5   4     2.534786292752   119.52127959     1.95298706
 C     12  10   5     2.476911993557   119.33968305   180.95647623
 C     13  12  10     2.640683003606   123.91542062   359.83010690
 C     14  13  12     2.594434651825   117.93429563   359.47748477
 C      6   4   1     2.562867434097   118.69876774   299.35860126
 O     16   6   4     2.313884101071   123.26004726     0.61024744
 N     16   6   4     2.522808478757   112.05802681   181.24633255
 C     18  16   6     2.734649615923   123.07156199     1.64078871
 C     18  16   6     2.732123686639   120.33239009   183.82247342
 H     20  18  16     2.055810837664   108.73477280     0.89031839
 H     20  18  16     2.060355184376   109.99642558   241.13005168
 H     20  18  16     2.060392864643   109.68224968   120.75068276
 H     19  18  16     2.053525660614   109.37834425    24.21248723
 H     19  18  16     2.062657830881   110.59466964   263.46307162
 H     19  18  16     2.056400536153   108.39170369   143.70883232
 H      3   2   1     2.038793083531   120.52855420   180.26635966
 H      1   2   3     2.039772900410   120.52028994   179.36037533
 H      2   1   3     2.037685654400   119.25803451   180.01073270
 H      8   7   3     2.039292126414   117.73304043   359.03986164
 H      9   8   7     2.040385202766   121.30842953   180.60017082
 H     13  12  10     2.044666718741   115.20590298   179.91955671
 H     14  13  12     2.036842039419   120.35245617   179.80820981
 H     15  14  13     2.041593528981   121.32709711   180.52034462

---------------------
BASIS SET INFORMATION
---------------------
There are 4 groups of distinct atoms

 Group   1 Type C   : 11s5p1d contracted to 4s3p1d pattern {6311/311/1}
 Group   2 Type O   : 11s5p1d contracted to 4s3p1d pattern {6311/311/1}
 Group   3 Type N   : 11s5p1d contracted to 4s3p1d pattern {6311/311/1}
 Group   4 Type H   : 5s contracted to 3s pattern {311}

Atom   0C    basis set group =>   1
Atom   1C    basis set group =>   1
Atom   2C    basis set group =>   1
Atom   3C    basis set group =>   1
Atom   4C    basis set group =>   1
Atom   5O    basis set group =>   2
Atom   6C    basis set group =>   1
Atom   7C    basis set group =>   1
Atom   8C    basis set group =>   1
Atom   9C    basis set group =>   1
Atom  10C    basis set group =>   1
Atom  11N    basis set group =>   3
Atom  12C    basis set group =>   1
Atom  13C    basis set group =>   1
Atom  14C    basis set group =>   1
Atom  15C    basis set group =>   1
Atom  16O    basis set group =>   2
Atom  17N    basis set group =>   3
Atom  18C    basis set group =>   1
Atom  19C    basis set group =>   1
Atom  20H    basis set group =>   4
Atom  21H    basis set group =>   4
Atom  22H    basis set group =>   4
Atom  23H    basis set group =>   4
Atom  24H    basis set group =>   4
Atom  25H    basis set group =>   4
Atom  26H    basis set group =>   4
Atom  27H    basis set group =>   4
Atom  28H    basis set group =>   4
Atom  29H    basis set group =>   4
Atom  30H    basis set group =>   4
Atom  31H    basis set group =>   4
Atom  32H    basis set group =>   4
Atom  33H    basis set group =>   4
---------------------------------
AUXILIARY/J BASIS SET INFORMATION
---------------------------------
There are 4 groups of distinct atoms

 Group   1 Type C   : 12s5p4d2f1g contracted to 6s4p3d1f1g pattern {711111/2111/211/2/1}
 Group   2 Type O   : 12s5p4d2f1g contracted to 6s4p3d1f1g pattern {711111/2111/211/2/1}
 Group   3 Type N   : 12s5p4d2f1g contracted to 6s4p3d1f1g pattern {711111/2111/211/2/1}
 Group   4 Type H   : 5s2p1d contracted to 3s1p1d pattern {311/2/1}

Atom   0C    basis set group =>   1
Atom   1C    basis set group =>   1
Atom   2C    basis set group =>   1
Atom   3C    basis set group =>   1
Atom   4C    basis set group =>   1
Atom   5O    basis set group =>   2
Atom   6C    basis set group =>   1
Atom   7C    basis set group =>   1
Atom   8C    basis set group =>   1
Atom   9C    basis set group =>   1
Atom  10C    basis set group =>   1
Atom  11N    basis set group =>   3
Atom  12C    basis set group =>   1
Atom  13C    basis set group =>   1
Atom  14C    basis set group =>   1
Atom  15C    basis set group =>   1
Atom  16O    basis set group =>   2
Atom  17N    basis set group =>   3
Atom  18C    basis set group =>   1
Atom  19C    basis set group =>   1
Atom  20H    basis set group =>   4
Atom  21H    basis set group =>   4
Atom  22H    basis set group =>   4
Atom  23H    basis set group =>   4
Atom  24H    basis set group =>   4
Atom  25H    basis set group =>   4
Atom  26H    basis set group =>   4
Atom  27H    basis set group =>   4
Atom  28H    basis set group =>   4
Atom  29H    basis set group =>   4
Atom  30H    basis set group =>   4
Atom  31H    basis set group =>   4
Atom  32H    basis set group =>   4
Atom  33H    basis set group =>   4
------------------------------------------------------------------------------
                             ORCA STARTUP CALCULATIONS
                           -- RI-GTO INTEGRALS CHOSEN --
------------------------------------------------------------------------------
------------------------------------------------------------------------------
                   ___                                                        
                  /   \      - P O W E R E D   B Y -                         
                 /     \                                                     
                 |  |  |   _    _      __       _____    __    __             
                 |  |  |  | |  | |    /  \     |  _  \  |  |  /  |          
                  \  \/   | |  | |   /    \    | | | |  |  | /  /          
                 / \  \   | |__| |  /  /\  \   | |_| |  |  |/  /          
                |  |  |   |  __  | /  /__\  \  |    /   |      \           
                |  |  |   | |  | | |   __   |  |    \   |  |\   \          
                \     /   | |  | | |  |  |  |  | |\  \  |  | \   \       
                 \___/    |_|  |_| |__|  |__|  |_| \__\ |__|  \__/        
                                                                              
                      - O R C A' S   B I G   F R I E N D -                    
                                      &                                       
                       - I N T E G R A L  F E E D E R -                       
                                                                              
 v1 FN, 2020, v2 2021, v3 2022-2024                                           
------------------------------------------------------------------------------


----------------------
SHARK INTEGRAL PACKAGE
----------------------

Number of atoms                             ...     34
Number of basis functions                   ...    402
Number of shells                            ...    202
Maximum angular momentum                    ...      2
Integral batch strategy                     ... SHARK/LIBINT Hybrid
RI-J (if used) integral strategy            ... SPLIT-RIJ (Revised 2003 algorithm where possible)
Printlevel                                  ...      1
Contraction scheme used                     ... SEGMENTED contraction
Prescreening option                         ... SCHWARTZ
   Thresh                                   ... 2.500e-11
   Tcut                                     ... 2.500e-12
   Tpresel                                  ... 2.500e-12 
Coulomb Range Separation                    ... NOT USED
Exchange Range Separation                   ... NOT USED
Multipole approximations                    ... NOT USED
Finite Nucleus Model                        ... NOT USED
CABS basis                                  ... NOT available
Auxiliary Coulomb fitting basis             ... AVAILABLE
   # of basis functions in Aux-J            ...   1134
   # of shells in Aux-J                     ...    370
   Maximum angular momentum in Aux-J        ...      4
Auxiliary J/K fitting basis                 ... NOT available
Auxiliary Correlation fitting basis         ... NOT available
Auxiliary 'external' fitting basis          ... NOT available

Checking pre-screening integrals            ... done (  0.0 sec) Dimension = 202
Check shell pair data                       ... done (  0.0 sec)
Shell pair information
Shell pair cut-off parameter TPreSel        ...   2.5e-12
Total number of shell pairs                 ...     20503
Shell pairs after pre-screening             ...     14903
Total number of primitive shell pairs       ...     84717
Primitive shell pairs kept                  ...     37310
          la=0 lb=0:   5100 shell pairs
          la=1 lb=0:   5530 shell pairs
          la=1 lb=1:   1514 shell pairs
          la=2 lb=0:   1661 shell pairs
          la=2 lb=1:    943 shell pairs
          la=2 lb=2:    155 shell pairs

Calculating one electron integrals          ... done (  0.1 sec)
Calculating RI/J V-Matrix + Cholesky decomp.... done (  2.0 sec)
Calculating Nuclear repulsion               ... done (  0.0 sec) ENN=   1506.563316110193 Eh

Diagonalization of the overlap matrix:
Smallest eigenvalue                        ... 7.776e-05
Time for diagonalization                   ...    0.010 sec
Threshold for overlap eigenvalues          ... 1.000e-07
Number of eigenvalues below threshold      ... 0
Time for construction of square roots      ...    0.129 sec
Total time needed                          ...    0.294 sec

-------------------
DFT GRID GENERATION
-------------------

General Integration Accuracy     IntAcc      ... 4.388
Radial Grid Type                 RadialGrid  ... OptM3 with GC (2021)
Angular Grid (max. ang.)         AngularGrid ... 4 (Lebedev-302)
Angular grid pruning method      GridPruning ... 4 (adaptive)
Weight generation scheme         WeightScheme... mBecke (2022)
Basis function cutoff            BFCut       ... 1.0000e-11
Integration weight cutoff        WCut        ... 1.0000e-14
Partially contracted basis set               ... off
Rotationally invariant grid construction     ... off
Angular grids for H and He will be reduced by one unit

Total number of grid points                  ...   164411
Total number of batches                      ...     2589
Average number of points per batch           ...       63
Average number of grid points per atom       ...     4836

--------------------
COSX GRID GENERATION
--------------------

GRIDX 1
-------
General Integration Accuracy     IntAcc      ... 3.816
Radial Grid Type                 RadialGrid  ... OptM3 with GC (2021)
Angular Grid (max. ang.)         AngularGrid ... 1 (Lebedev-50)
Angular grid pruning method      GridPruning ... 4 (adaptive)
Weight generation scheme         WeightScheme... mBecke (2022)
Basis function cutoff            BFCut       ... 1.0000e-11
Integration weight cutoff        WCut        ... 1.0000e-14
Partially contracted basis set               ... on
Rotationally invariant grid construction     ... off
Angular grids for H and He will be reduced by one unit

Total number of grid points                  ...    20914
Total number of batches                      ...      180
Average number of points per batch           ...      116
Average number of grid points per atom       ...      615
UseSFitting                                  ... on

GRIDX 2
-------
General Integration Accuracy     IntAcc      ... 4.020
Radial Grid Type                 RadialGrid  ... OptM3 with GC (2021)
Angular Grid (max. ang.)         AngularGrid ... 2 (Lebedev-110)
Angular grid pruning method      GridPruning ... 4 (adaptive)
Weight generation scheme         WeightScheme... mBecke (2022)
Basis function cutoff            BFCut       ... 1.0000e-11
Integration weight cutoff        WCut        ... 1.0000e-14
Partially contracted basis set               ... on
Rotationally invariant grid construction     ... off
Angular grids for H and He will be reduced by one unit

Total number of grid points                  ...    45720
Total number of batches                      ...      372
Average number of points per batch           ...      122
Average number of grid points per atom       ...     1345
UseSFitting                                  ... on

GRIDX 3
-------
General Integration Accuracy     IntAcc      ... 4.338
Radial Grid Type                 RadialGrid  ... OptM3 with GC (2021)
Angular Grid (max. ang.)         AngularGrid ... 3 (Lebedev-194)
Angular grid pruning method      GridPruning ... 4 (adaptive)
Weight generation scheme         WeightScheme... mBecke (2022)
Basis function cutoff            BFCut       ... 1.0000e-11
Integration weight cutoff        WCut        ... 1.0000e-14
Partially contracted basis set               ... on
Rotationally invariant grid construction     ... off
Angular grids for H and He will be reduced by one unit

Total number of grid points                  ...   100033
Total number of batches                      ...      799
Average number of points per batch           ...      125
Average number of grid points per atom       ...     2942
UseSFitting                                  ... on
Initializing property integral containers    ... done (  0.0 sec)

SHARK setup successfully completed in  22.3 seconds

Maximum memory used throughout the entire STARTUP-calculation: 80.0 MB
-------------------------------------------------------------------------------
                                 ORCA GUESS
                   Start orbitals & Density for SCF / CASSCF
-------------------------------------------------------------------------------

------------
SCF SETTINGS
------------
Hamiltonian:
 Density Functional     Method          .... DFT(GTOs)
 Exchange Functional    Exchange        .... B88
   X-Alpha parameter    XAlpha          ....  0.666667
   Becke's b parameter  XBeta           ....  0.004200
 Correlation Functional Correlation     .... LYP
 LDA part of GGA corr.  LDAOpt          .... VWN-3
 Gradients option       PostSCFGGA      .... off
 Hybrid DFT is turned on
   Fraction HF Exchange ScalHFX         ....  0.200000
   Scaling of DF-GGA-X  ScalDFX         ....  0.720000
   Scaling of DF-GGA-C  ScalDFC         ....  0.810000
   Scaling of DF-LDA-C  ScalLDAC        ....  1.000000
   Perturbative correction              ....  0.000000
   NL short-range parameter             ....  4.800000
 RI-approximation to the Coulomb term is turned on
   Number of AuxJ basis functions       .... 1134
   RIJ-COSX (HFX calculated with COS-X)).... on


General Settings:
 Integral files         IntName         .... 3
 Hartree-Fock type      HFTyp           .... RHF
 Total Charge           Charge          ....    0
 Multiplicity           Mult            ....    1
 Number of Electrons    NEL             ....  140
 Basis Dimension        Dim             ....  402
 Nuclear Repulsion      ENuc            ....   1506.5633161102 Eh

Convergence Acceleration:
 AO-DIIS                CNVDIIS         .... on
   Start iteration      DIISMaxIt       ....    12
   Startup error        DIISStart       ....  0.200000
   # of expansion vecs  DIISMaxEq       ....     5
   Bias factor          DIISBfac        ....   1.050
   Max. coefficient     DIISMaxC        ....  10.000
 MO-DIIS                CNVKDIIS        .... off
 Trust-Rad. Augm. Hess. CNVTRAH         .... auto
   Auto Start mean grad. ratio tolernc. ....  1.125000
   Auto Start start iteration           ....    50
   Auto Start num. interpolation iter.  ....    10
   Max. Number of Micro iterations      ....    24
   Max. Number of Macro iterations      .... Maxiter - #DIIS iter
   Number of Davidson start vectors     ....     2
   Converg. threshold    (grad. norm)   ....   1.000e-05
   Grad. Scal. Fac. for Micro threshold ....   0.100
   Minimum threshold for Micro iter.    ....   1.000e-02
   NR start threshold (gradient norm)   ....   1.000e-04
   Initial trust radius                 ....   0.400
   Minimum AH scaling param. (alpha)    ....   1.000
   Maximum AH scaling param. (alpha)    .... 1000.000
   Quad. conv. algorithm                .... NR
   White noise on init. David. guess    .... on
   Maximum white noise                  ....   0.010
   Pseudo random numbers                .... off
   Inactive MOs                         .... canonical
   Orbital update algorithm             .... Taylor
   Preconditioner                       .... Diag
   Full preconditioner red. dimension   ....   250
 SOSCF                  CNVSOSCF        .... on
   Start iteration      SOSCFMaxIt      ....   150
   Startup grad/error   SOSCFStart      ....  0.003300
   Hessian update       SOSCFHessUp     .... L-BFGS
 Level Shifting         CNVShift        .... on
   Level shift para.    LevelShift      ....    0.2500
   Turn off err/grad.   ShiftErr        ....    0.0010
 Zerner damping         CNVZerner       .... off
 Static damping         CNVDamp         .... on
   Fraction old density DampFac         ....    0.7000
   Max. Damping (<1)    DampMax         ....    0.9800
   Min. Damping (>=0)   DampMin         ....    0.0000
   Turn off err/grad.   DampErr         ....    0.1000

SCF Procedure:
 Maximum # iterations   MaxIter         ....   125
 SCF integral mode      SCFMode         .... Direct
   Integral package                     .... SHARK and LIBINT hybrid scheme
 Reset frequency        DirectResetFreq ....    20
 Integral Threshold     Thresh          ....  2.500e-11 Eh
 Primitive CutOff       TCut            ....  2.500e-12 Eh

Convergence Tolerance:
 Convergence Check Mode ConvCheckMode   .... Total+1el-Energy
 Convergence forced     ConvForced      .... 1
 Energy Change          TolE            ....  1.000e-08 Eh
 1-El. energy change                    ....  1.000e-05 Eh
 Orbital Gradient       TolG            ....  1.000e-05
 Orbital Rotation angle TolX            ....  1.000e-05
 DIIS Error             TolErr          ....  5.000e-07

------------------------------
INITIAL GUESS: MODEL POTENTIAL
------------------------------
Loading Hartree-Fock densities                     ... done
Calculating cut-offs                               ... done
Initializing the effective Hamiltonian             ... done
Setting up the integral package (SHARK)            ... done
Starting the Coulomb interaction                   ... done (   1.1 sec)
Making the grid                                    ... done (   1.4 sec)
Mapping shells                                     ... done
Starting the XC term evaluation                    ... done (   0.3 sec)
  promolecular density results
     # of electrons  =    139.983009523
     EX              =   -116.097406905
     EC              =     -4.791671855
     EX+EC           =   -120.889078760
Transforming the Hamiltonian                       ... done (   0.0 sec)
Diagonalizing the Hamiltonian                      ... done (   0.0 sec)
Back transforming the eigenvectors                 ... done (   0.2 sec)
Now organizing SCF variables                       ... done
                      ------------------
                      INITIAL GUESS DONE (   4.6 sec)
                      ------------------
             **** ENERGY FILE WAS UPDATED (3.en.tmp) ****
Finished Guess after   7.9 sec
Maximum memory used throughout the entire GUESS-calculation: 47.7 MB

-------------------------------------------------------------------------------------------
                                      ORCA LEAN-SCF
                              memory conserving SCF solver
-------------------------------------------------------------------------------------------

--------------------
CPCM SOLVATION MODEL
--------------------
CPCM parameters:
  Epsilon                                         ...      80.1510
  Refrac                                          ...       1.3328
  Rsolv                                           ...       1.3000
  Surface type                                    ... GAUSSIAN VDW
  Discretization scheme                           ... Constant charge density
    Threshold for H atoms                         ...       5.0000 (charges/Ang^2)
    Threshold for non-H atoms                     ...       5.0000 (charges/Ang^2)
  Epsilon function type                           ...         CPCM
Solvent:                                          ... WATER
Radii:
  Scheme                                          ... Element-dependent radii
  Radius for C  used is    3.8550 Bohr (=   2.0400 Ang.)
  Radius for O  used is    3.4469 Bohr (=   1.8240 Ang.)
  Radius for N  used is    3.5149 Bohr (=   1.8600 Ang.)
  Radius for H  used is    2.4944 Bohr (=   1.3200 Ang.)
Calculating surface                               ...        done! (  0.0s)
Cavity surface points                             ...         2984
Cavity Volume                                     ...    2102.8519
Cavity Surface-area                               ...    1062.5920
Calculating surface distance matrix               ...        done! (  0.0s)
Performing Cholesky decomposition & store         ...        done! (  6.6s)
Overall time for CPCM initialization              ...                 6.7s

----------------------------------------D-I-I-S--------------------------------------------
Iteration    Energy (Eh)           Delta-E    RMSDP     MaxDP     DIISErr   Damp  Time(sec)
-------------------------------------------------------------------------------------------
               ***  Starting incremental Fock matrix formation  ***
    1    -877.8325520287510244     0.00e+00  1.94e-03  7.60e-02  3.53e-01  0.700  23.8
    2    -878.0547211190262260    -2.22e-01  1.45e-03  4.76e-02  1.36e-01  0.700  11.2
                               ***Turning on AO-DIIS***
    3    -878.1464815280717175    -9.18e-02  6.46e-04  1.91e-02  4.04e-02  0.700  11.6
    4    -878.2016676401283348    -5.52e-02  1.02e-03  2.65e-02  2.08e-02  0.000  11.0
    5    -878.3212682980877162    -1.20e-01  2.37e-04  6.57e-03  5.23e-03  0.000  11.6
                              *** Initializing SOSCF ***
---------------------------------------S-O-S-C-F--------------------------------------
Iteration    Energy (Eh)           Delta-E    RMSDP     MaxDP     MaxGrad    Time(sec)
--------------------------------------------------------------------------------------
    6    -878.3218513082913432    -5.83e-04  6.56e-05  1.63e-03  1.91e-03    10.9
               *** Restarting incremental Fock matrix formation ***
    7    -878.3218984526358781    -4.71e-05  3.93e-05  1.59e-03  3.49e-04    17.6
    8    -878.3218871508136090     1.13e-05  1.99e-05  9.97e-04  6.74e-04    11.9
    9    -878.3219062242762902    -1.91e-05  2.99e-06  1.01e-04  2.24e-05    10.8
   10    -878.3219061566735490     6.76e-08  1.65e-06  6.85e-05  3.80e-05     9.8
   11    -878.3219062749697059    -1.18e-07  5.29e-07  1.90e-05  4.29e-06     9.5
   12    -878.3219062662308261     8.74e-09  2.73e-07  1.24e-05  5.46e-06     9.1
                 **** Energy Check signals convergence ****

               *****************************************************
               *                     SUCCESS                       *
               *           SCF CONVERGED AFTER  12 CYCLES          *
               *****************************************************

Recomputing exchange energy using gridx3       ... done (   23.571 sec)
Old exchange energy                            :    -23.582859450 Eh
New exchange energy                            :    -23.582889860 Eh
Exchange energy change after final integration :     -0.000030410 Eh
Total energy after final integration           :   -878.321936676 Eh
             **** ENERGY FILE WAS UPDATED (3.en.tmp) ****

----------------
TOTAL SCF ENERGY
----------------

Total Energy       :       -878.32193667601575 Eh          -23900.35497 eV

Components:
Nuclear Repulsion  :       1506.56331611019300 Eh           40995.67201 eV
Electronic Energy  :      -2384.86414723314147 Eh          -64895.45267 eV
One Electron Energy:      -4186.17975609851055 Eh         -113911.74232 eV
Two Electron Energy:       1801.31560886536909 Eh           49016.28966 eV
CPCM Dielectric    :         -0.02107514328233 Eh              -0.57348 eV

Virial components:
Potential Energy   :      -1753.87997827957747 Eh          -47725.50053 eV
Kinetic Energy     :        875.55804160356172 Eh           23825.14556 eV
Virial Ratio       :          2.00315672398759

DFT components:
N(Alpha)           :       70.000059850430 electrons
N(Beta)            :       70.000059850430 electrons
N(Total)           :      140.000119700860 electrons
E(X)               :      -93.741207856835 Eh       
E(C)               :       -6.163792483948 Eh       
E(XC)              :      -99.905000340782 Eh       

CPCM Solvation Model Properties:
Surface-charge          :         -0.02778155611490
Corrected charge        :         -0.00000000000000
Outlying charge corr.   :          0.00004340207158 Eh               0.00118 eV
Free-energy (cav+disp)  :  This term is not implemented in the current solvation scheme

---------------
SCF CONVERGENCE
---------------

  Last Energy change         ...   -8.7389e-09  Tolerance :   1.0000e-08
  Last MAX-Density change    ...    1.2394e-05  Tolerance :   1.0000e-07
  Last RMS-Density change    ...    2.7331e-07  Tolerance :   5.0000e-09
  Last DIIS Error            ...    1.9116e-03  Tolerance :   5.0000e-07
  Last Orbital Gradient      ...    5.4599e-06  Tolerance :   1.0000e-05
  Last Orbital Rotation      ...    9.6222e-06  Tolerance :   1.0000e-05


----------------
ORBITAL ENERGIES
----------------

  NO   OCC          E(Eh)            E(eV) 
   0   2.0000     -19.167012      -521.5609 
   1   2.0000     -19.084793      -519.3236 
   2   2.0000     -14.343217      -390.2988 
   3   2.0000     -14.306313      -389.2946 
   4   2.0000     -10.316587      -280.7286 
   5   2.0000     -10.245361      -278.7905 
   6   2.0000     -10.220104      -278.1032 
   7   2.0000     -10.207146      -277.7506 
   8   2.0000     -10.194896      -277.4172 
   9   2.0000     -10.193281      -277.3733 
  10   2.0000     -10.192527      -277.3527 
  11   2.0000     -10.192258      -277.3454 
  12   2.0000     -10.190625      -277.3010 
  13   2.0000     -10.189615      -277.2735 
  14   2.0000     -10.180539      -277.0265 
  15   2.0000     -10.180400      -277.0228 
  16   2.0000     -10.179839      -277.0075 
  17   2.0000     -10.179794      -277.0063 
  18   2.0000     -10.178479      -276.9705 
  19   2.0000     -10.176343      -276.9124 
  20   2.0000      -1.121793       -30.5255 
  21   2.0000      -1.021425       -27.7944 
  22   2.0000      -0.960190       -26.1281 
  23   2.0000      -0.950384       -25.8613 
  24   2.0000      -0.885191       -24.0873 
  25   2.0000      -0.841715       -22.9042 
  26   2.0000      -0.809703       -22.0331 
  27   2.0000      -0.787167       -21.4199 
  28   2.0000      -0.754150       -20.5215 
  29   2.0000      -0.745681       -20.2910 
  30   2.0000      -0.723264       -19.6810 
  31   2.0000      -0.708729       -19.2855 
  32   2.0000      -0.656444       -17.8628 
  33   2.0000      -0.650651       -17.7051 
  34   2.0000      -0.640367       -17.4253 
  35   2.0000      -0.616172       -16.7669 
  36   2.0000      -0.579938       -15.7809 
  37   2.0000      -0.546917       -14.8824 
  38   2.0000      -0.537323       -14.6213 
  39   2.0000      -0.530300       -14.4302 
  40   2.0000      -0.520646       -14.1675 
  41   2.0000      -0.496984       -13.5236 
  42   2.0000      -0.492719       -13.4076 
  43   2.0000      -0.485282       -13.2052 
  44   2.0000      -0.479721       -13.0539 
  45   2.0000      -0.467149       -12.7118 
  46   2.0000      -0.446682       -12.1548 
  47   2.0000      -0.446118       -12.1395 
  48   2.0000      -0.438880       -11.9425 
  49   2.0000      -0.430356       -11.7106 
  50   2.0000      -0.422330       -11.4922 
  51   2.0000      -0.413196       -11.2436 
  52   2.0000      -0.408957       -11.1283 
  53   2.0000      -0.407852       -11.0982 
  54   2.0000      -0.403503       -10.9799 
  55   2.0000      -0.402436       -10.9508 
  56   2.0000      -0.386186       -10.5087 
  57   2.0000      -0.385539       -10.4911 
  58   2.0000      -0.372931       -10.1480 
  59   2.0000      -0.363591        -9.8938 
  60   2.0000      -0.356146        -9.6912 
  61   2.0000      -0.338682        -9.2160 
  62   2.0000      -0.322341        -8.7714 
  63   2.0000      -0.308979        -8.4077 
  64   2.0000      -0.283115        -7.7040 
  65   2.0000      -0.280642        -7.6367 
  66   2.0000      -0.254167        -6.9162 
  67   2.0000      -0.249288        -6.7835 
  68   2.0000      -0.244694        -6.6585 
  69   2.0000      -0.226802        -6.1716 
  70   0.0000      -0.058754        -1.5988 
  71   0.0000      -0.051088        -1.3902 
  72   0.0000      -0.011450        -0.3116 
  73   0.0000       0.015747         0.4285 
  74   0.0000       0.046981         1.2784 
  75   0.0000       0.048137         1.3099 
  76   0.0000       0.058800         1.6000 
  77   0.0000       0.063588         1.7303 
  78   0.0000       0.064338         1.7507 
  79   0.0000       0.079037         2.1507 
  80   0.0000       0.088188         2.3997 
*Only the first 10 virtual orbitals were printed.

                    ********************************
                    * MULLIKEN POPULATION ANALYSIS *
                    ********************************

-----------------------
MULLIKEN ATOMIC CHARGES
-----------------------
   0 C :   -0.207014
   1 C :   -0.222364
   2 C :   -0.225971
   3 C :    0.197164
   4 C :    0.017677
   5 O :   -0.342617
   6 C :    0.007344
   7 C :   -0.228186
   8 C :   -0.232987
   9 C :    0.102779
  10 C :   -0.008953
  11 N :   -0.337274
  12 C :   -0.050482
  13 C :   -0.291248
  14 C :   -0.105171
  15 C :    0.531667
  16 O :   -0.468437
  17 N :   -0.325275
  18 C :   -0.530727
  19 C :   -0.524937
  20 H :    0.232747
  21 H :    0.236408
  22 H :    0.233710
  23 H :    0.258570
  24 H :    0.227290
  25 H :    0.230055
  26 H :    0.226751
  27 H :    0.230285
  28 H :    0.227034
  29 H :    0.229014
  30 H :    0.227665
  31 H :    0.220553
  32 H :    0.229058
  33 H :    0.235872
Sum of atomic charges:    0.0000000

--------------------------------
MULLIKEN REDUCED ORBITAL CHARGES
--------------------------------
  0 C s       :     3.159238  s :     3.159238
      pz      :     0.997020  p :     2.988940
      px      :     1.028069
      py      :     0.963851
      dz2     :     0.010960  d :     0.058837
      dxz     :     0.010563
      dyz     :     0.008170
      dx2y2   :     0.017756
      dxy     :     0.011388

  1 C s       :     3.198514  s :     3.198514
      pz      :     0.977464  p :     2.960687
      px      :     0.989611
      py      :     0.993612
      dz2     :     0.008740  d :     0.063163
      dxz     :     0.015622
      dyz     :     0.007701
      dx2y2   :     0.011727
      dxy     :     0.019372

  2 C s       :     3.188685  s :     3.188685
      pz      :     1.014121  p :     2.975886
      px      :     0.956459
      py      :     1.005307
      dz2     :     0.006114  d :     0.061400
      dxz     :     0.014895
      dyz     :     0.009625
      dx2y2   :     0.013963
      dxy     :     0.016803

  3 C s       :     3.120189  s :     3.120189
      pz      :     0.795347  p :     2.568266
      px      :     0.901613
      py      :     0.871306
      dz2     :     0.017827  d :     0.114381
      dxz     :     0.024367
      dyz     :     0.019332
      dx2y2   :     0.027184
      dxy     :     0.025671

  4 C s       :     3.046013  s :     3.046013
      pz      :     1.043448  p :     2.867975
      px      :     0.879007
      py      :     0.945520
      dz2     :     0.010790  d :     0.068334
      dxz     :     0.015374
      dyz     :     0.008435
      dx2y2   :     0.016942
      dxy     :     0.016793

  5 O s       :     3.794666  s :     3.794666
      pz      :     1.584935  p :     4.532648
      px      :     1.530769
      py      :     1.416945
      dz2     :     0.002913  d :     0.015303
      dxz     :     0.002922
      dyz     :     0.004315
      dx2y2   :     0.002317
      dxy     :     0.002836

  6 C s       :     3.090179  s :     3.090179
      pz      :     0.950935  p :     2.826305
      px      :     0.936850
      py      :     0.938520
      dz2     :     0.012175  d :     0.076172
      dxz     :     0.016871
      dyz     :     0.009784
      dx2y2   :     0.018834
      dxy     :     0.018507

  7 C s       :     3.193758  s :     3.193758
      pz      :     1.010023  p :     2.972379
      px      :     0.946822
      py      :     1.015534
      dz2     :     0.006624  d :     0.062049
      dxz     :     0.013229
      dyz     :     0.010869
      dx2y2   :     0.016593
      dxy     :     0.014735

  8 C s       :     3.201840  s :     3.201840
      pz      :     0.970149  p :     2.969162
      px      :     1.038930
      py      :     0.960084
      dz2     :     0.011478  d :     0.061985
      dxz     :     0.009960
      dyz     :     0.009536
      dx2y2   :     0.020525
      dxy     :     0.010487

  9 C s       :     3.066015  s :     3.066015
      pz      :     0.896261  p :     2.731351
      px      :     0.955345
      py      :     0.879745
      dz2     :     0.015889  d :     0.099855
      dxz     :     0.023073
      dyz     :     0.014172
      dx2y2   :     0.022419
      dxy     :     0.024303

 10 C s       :     3.070831  s :     3.070831
      pz      :     0.987129  p :     2.864117
      px      :     0.886964
      py      :     0.990024
      dz2     :     0.012529  d :     0.074004
      dxz     :     0.015107
      dyz     :     0.010282
      dx2y2   :     0.018874
      dxy     :     0.017212

 11 N s       :     3.614675  s :     3.614675
      pz      :     1.118244  p :     3.685434
      px      :     1.498214
      py      :     1.068976
      dz2     :     0.006309  d :     0.037165
      dxz     :     0.008191
      dyz     :     0.005814
      dx2y2   :     0.006553
      dxy     :     0.010297

 12 C s       :     3.134967  s :     3.134967
      pz      :     0.965636  p :     2.825270
      px      :     0.912858
      py      :     0.946777
      dz2     :     0.010930  d :     0.090245
      dxz     :     0.018222
      dyz     :     0.014605
      dx2y2   :     0.024674
      dxy     :     0.021814

 13 C s       :     3.232915  s :     3.232915
      pz      :     0.992870  p :     2.998824
      px      :     0.986518
      py      :     1.019436
      dz2     :     0.008174  d :     0.059509
      dxz     :     0.013879
      dyz     :     0.008228
      dx2y2   :     0.012387
      dxy     :     0.016841

 14 C s       :     3.157638  s :     3.157638
      pz      :     0.947827  p :     2.885207
      px      :     0.996532
      py      :     0.940849
      dz2     :     0.011714  d :     0.062327
      dxz     :     0.010974
      dyz     :     0.008932
      dx2y2   :     0.019491
      dxy     :     0.011216

 15 C s       :     2.903326  s :     2.903326
      pz      :     0.757328  p :     2.334081
      px      :     0.785963
      py      :     0.790790
      dz2     :     0.052134  d :     0.230925
      dxz     :     0.053158
      dyz     :     0.066532
      dx2y2   :     0.031767
      dxy     :     0.027335

 16 O s       :     3.825394  s :     3.825394
      pz      :     1.370306  p :     4.627059
      px      :     1.580951
      py      :     1.675802
      dz2     :     0.006741  d :     0.015984
      dxz     :     0.004941
      dyz     :     0.003277
      dx2y2   :     0.000565
      dxy     :     0.000460

 17 N s       :     3.463450  s :     3.463450
      pz      :     1.137360  p :     3.826201
      px      :     1.368039
      py      :     1.320802
      dz2     :     0.007893  d :     0.035624
      dxz     :     0.008145
      dyz     :     0.009403
      dx2y2   :     0.005433
      dxy     :     0.004751

 18 C s       :     3.321285  s :     3.321285
      pz      :     0.844706  p :     3.138637
      px      :     1.133185
      py      :     1.160745
      dz2     :     0.018337  d :     0.070805
      dxz     :     0.016786
      dyz     :     0.015252
      dx2y2   :     0.011094
      dxy     :     0.009337

 19 C s       :     3.321086  s :     3.321086
      pz      :     1.173098  p :     3.132743
      px      :     0.973906
      py      :     0.985739
      dz2     :     0.014544  d :     0.071109
      dxz     :     0.015216
      dyz     :     0.004336
      dx2y2   :     0.019578
      dxy     :     0.017434

 20 H s       :     0.767253  s :     0.767253

 21 H s       :     0.763592  s :     0.763592

 22 H s       :     0.766290  s :     0.766290

 23 H s       :     0.741430  s :     0.741430

 24 H s       :     0.772710  s :     0.772710

 25 H s       :     0.769945  s :     0.769945

 26 H s       :     0.773249  s :     0.773249

 27 H s       :     0.769715  s :     0.769715

 28 H s       :     0.772966  s :     0.772966

 29 H s       :     0.770986  s :     0.770986

 30 H s       :     0.772335  s :     0.772335

 31 H s       :     0.779447  s :     0.779447

 32 H s       :     0.770942  s :     0.770942

 33 H s       :     0.764128  s :     0.764128



                     *******************************
                     * LOEWDIN POPULATION ANALYSIS *
                     *******************************

----------------------
LOEWDIN ATOMIC CHARGES
----------------------
   0 C :   -0.113657
   1 C :   -0.104505
   2 C :   -0.102796
   3 C :   -0.006777
   4 C :   -0.038008
   5 O :    0.079642
   6 C :   -0.032861
   7 C :   -0.092505
   8 C :   -0.098328
   9 C :   -0.037101
  10 C :   -0.050280
  11 N :   -0.002957
  12 C :   -0.105142
  13 C :   -0.128883
  14 C :   -0.061580
  15 C :   -0.124498
  16 O :   -0.201507
  17 N :    0.043985
  18 C :   -0.247981
  19 C :   -0.242083
  20 H :    0.117323
  21 H :    0.114261
  22 H :    0.114142
  23 H :    0.117198
  24 H :    0.109260
  25 H :    0.115508
  26 H :    0.122851
  27 H :    0.122511
  28 H :    0.123775
  29 H :    0.124954
  30 H :    0.124315
  31 H :    0.107590
  32 H :    0.126358
  33 H :    0.127777

-------------------------------
LOEWDIN REDUCED ORBITAL CHARGES
-------------------------------
  0 C s       :     2.831125  s :     2.831125
      pz      :     1.034723  p :     3.151509
      px      :     1.069826
      py      :     1.046960
      dz2     :     0.022091  d :     0.131023
      dxz     :     0.023591
      dyz     :     0.022045
      dx2y2   :     0.034836
      dxy     :     0.028461

  1 C s       :     2.827024  s :     2.827024
      pz      :     1.015410  p :     3.140171
      px      :     1.098096
      py      :     1.026665
      dz2     :     0.018730  d :     0.137309
      dxz     :     0.033042
      dyz     :     0.016545
      dx2y2   :     0.029788
      dxy     :     0.039205

  2 C s       :     2.826086  s :     2.826086
      pz      :     1.018755  p :     3.142992
      px      :     1.094790
      py      :     1.029447
      dz2     :     0.013219  d :     0.133718
      dxz     :     0.032623
      dyz     :     0.016251
      dx2y2   :     0.033979
      dxy     :     0.037647

  3 C s       :     2.787804  s :     2.787804
      pz      :     0.942940  p :     2.967668
      px      :     1.072802
      py      :     0.951926
      dz2     :     0.037202  d :     0.251304
      dxz     :     0.053848
      dyz     :     0.046365
      dx2y2   :     0.059787
      dxy     :     0.054102

  4 C s       :     2.784139  s :     2.784139
      pz      :     1.017389  p :     3.092883
      px      :     1.049638
      py      :     1.025855
      dz2     :     0.023317  d :     0.160986
      dxz     :     0.035371
      dyz     :     0.020909
      dx2y2   :     0.041480
      dxy     :     0.039908

  5 O s       :     3.361976  s :     3.361976
      pz      :     1.583763  p :     4.532933
      px      :     1.530932
      py      :     1.418238
      dz2     :     0.004387  d :     0.025449
      dxz     :     0.004383
      dyz     :     0.006932
      dx2y2   :     0.003736
      dxy     :     0.006011

  6 C s       :     2.778559  s :     2.778559
      pz      :     0.998399  p :     3.080597
      px      :     1.064549
      py      :     1.017649
      dz2     :     0.026030  d :     0.173705
      dxz     :     0.037909
      dyz     :     0.023713
      dx2y2   :     0.043573
      dxy     :     0.042481

  7 C s       :     2.827558  s :     2.827558
      pz      :     1.015450  p :     3.130425
      px      :     1.074678
      py      :     1.040298
      dz2     :     0.013806  d :     0.134522
      dxz     :     0.029492
      dyz     :     0.018829
      dx2y2   :     0.038056
      dxy     :     0.034340

  8 C s       :     2.827182  s :     2.827182
      pz      :     1.017761  p :     3.136156
      px      :     1.077776
      py      :     1.040619
      dz2     :     0.023104  d :     0.134990
      dxz     :     0.021826
      dyz     :     0.023513
      dx2y2   :     0.040090
      dxy     :     0.026456

  9 C s       :     2.782597  s :     2.782597
      pz      :     0.980182  p :     3.027420
      px      :     1.060549
      py      :     0.986688
      dz2     :     0.032364  d :     0.227084
      dxz     :     0.053739
      dyz     :     0.033934
      dx2y2   :     0.050077
      dxy     :     0.056970

 10 C s       :     2.783238  s :     2.783238
      pz      :     1.001718  p :     3.095428
      px      :     1.074052
      py      :     1.019659
      dz2     :     0.026388  d :     0.171614
      dxz     :     0.035604
      dyz     :     0.024072
      dx2y2   :     0.044281
      dxy     :     0.041270

 11 N s       :     3.134400  s :     3.134400
      pz      :     1.146075  p :     3.799647
      px      :     1.522838
      py      :     1.130733
[...]
 51:    985.67   0.013387   67.65  0.004238  ( 0.044719 -0.044985 -0.014660)
 52:   1014.66   0.033625  169.93  0.010341  (-0.055844  0.078607  0.032306)
 53:   1071.77   0.007060   35.68  0.002056  (-0.042237 -0.005274 -0.015620)
 54:   1082.68   0.044034  222.53  0.012692  ( 0.048877 -0.086458 -0.053180)
 55:   1083.74   0.004411   22.29  0.001270  (-0.028213  0.013966 -0.016711)
 56:   1101.01   0.020989  106.07  0.005949  ( 0.073657 -0.018297 -0.013740)
 57:   1116.12   0.184785  933.83  0.051666  (-0.149989  0.136221  0.103018)
 58:   1128.55   0.000507    2.56  0.000140  (-0.004417  0.001336  0.010908)
 59:   1134.32   0.001183    5.98  0.000325  (-0.012844  0.012632 -0.000934)
 60:   1172.86   0.007504   37.92  0.001997  ( 0.032013 -0.026179 -0.016921)
 61:   1181.48   0.001482    7.49  0.000391  ( 0.017955 -0.006524  0.005141)
 62:   1197.39   0.025329  128.00  0.006601  ( 0.068286 -0.037221 -0.023512)
 63:   1201.95   0.004493   22.71  0.001166  (-0.004492 -0.031755 -0.011745)
 64:   1253.91   0.031201  157.68  0.007765  ( 0.066493 -0.054854 -0.018300)
 65:   1255.31   0.007040   35.58  0.001750  (-0.034185  0.023496  0.005419)
 66:   1277.70   0.002611   13.19  0.000638  ( 0.000374 -0.024389 -0.006531)
 67:   1289.34   0.003765   19.03  0.000911  ( 0.011606 -0.017984 -0.021287)
 68:   1325.63   0.013443   67.94  0.003165  (-0.034359  0.037259  0.024412)
 69:   1365.69   0.006040   30.52  0.001380  ( 0.031213  0.015854  0.012431)
 70:   1377.72   0.003083   15.58  0.000698  ( 0.025869  0.001548  0.005158)
 71:   1406.98   0.024504  123.84  0.005435  ( 0.050146 -0.044888 -0.030091)
 72:   1416.88   0.032480  164.14  0.007154  ( 0.065896 -0.043570 -0.030216)
 73:   1427.69   0.001945    9.83  0.000425  ( 0.014799  0.010125  0.010175)
 74:   1444.22   0.000618    3.12  0.000133  ( 0.007246  0.006921  0.005751)
 75:   1449.23   0.001343    6.79  0.000289  (-0.009114  0.008814 -0.011331)
 76:   1454.97   0.009028   45.62  0.001936  (-0.034539  0.023753  0.013385)
 77:   1470.19   0.005850   29.56  0.001242  ( 0.017526 -0.014706  0.026802)
 78:   1490.25   0.000267    1.35  0.000056  ( 0.004996  0.002397  0.005011)
 79:   1501.08   0.006811   34.42  0.001416  (-0.027168 -0.025625 -0.004601)
 80:   1503.49   0.000835    4.22  0.000173  ( 0.005319 -0.007589  0.009355)
 81:   1504.20   0.003639   18.39  0.000755  (-0.023492  0.011810 -0.007981)
 82:   1514.41   0.000615    3.11  0.000127  (-0.008125 -0.007664  0.001370)
 83:   1534.37   0.020141  101.78  0.004096  (-0.047487  0.041428  0.011185)
 84:   1543.61   0.001078    5.45  0.000218  (-0.009834  0.010227  0.004067)
 85:   1553.50   0.004547   22.98  0.000913  (-0.026109 -0.012232 -0.009065)
 86:   1567.60   0.004552   23.00  0.000906  ( 0.002862 -0.022290 -0.020029)
 87:   1754.73   0.184531  932.54  0.032817  (-0.012721 -0.019918 -0.179607)
 88:   3031.68   0.008433   42.62  0.000868  (-0.006028  0.014792 -0.024756)
 89:   3036.93   0.023205  117.27  0.002384  (-0.033560  0.011992  0.033383)
 90:   3093.41   0.013968   70.59  0.001409  (-0.018717 -0.032366 -0.003346)
 91:   3097.98   0.004141   20.92  0.000417  ( 0.008005  0.017215  0.007527)
 92:   3140.33   0.005960   30.12  0.000592  (-0.005332  0.021312  0.010469)
 93:   3175.70   0.000879    4.44  0.000086  ( 0.002572  0.007401  0.005002)
 94:   3177.52   0.001666    8.42  0.000164  (-0.002884  0.001304 -0.012395)
 95:   3181.91   0.007213   36.45  0.000707  ( 0.013194 -0.020328 -0.010960)
 96:   3187.51   0.002553   12.90  0.000250  (-0.014998  0.004504  0.002175)
 97:   3195.83   0.003759   19.00  0.000367  (-0.018756  0.003806 -0.000904)
 98:   3197.15   0.006957   35.16  0.000679  (-0.015245 -0.017569 -0.011746)
 99:   3203.09   0.003025   15.29  0.000295  (-0.007233  0.013666  0.007460)
100:   3214.55   0.006297   31.82  0.000611  ( 0.004897  0.019109  0.014903)
101:   3230.45   0.002207   11.15  0.000213  ( 0.014298  0.002695  0.001231)

* The epsilon (eps) is given for a Dirac delta lineshape.
** The dipole moment derivative (T) already includes vibrational overlap.

The first frequency considered to be a vibration is 6
The total number of vibrations considered is 96


--------------------------
THERMOCHEMISTRY AT 298.15K
--------------------------

Temperature         ...   298.15 K
Pressure            ...     1.00 atm
Total Mass          ...   266.30 AMU
Quasi RRHO          ...     True
Cut-Off Frequency   ...     1.00 cm^-1

Throughout the following assumptions are being made:
  (1) The electronic state is orbitally nondegenerate
  (2) There are no thermally accessible electronically excited states
  (3) Hindered rotations indicated by low frequency modes are not
      treated as such but are treated as vibrations and this may
      cause some error
  (4) All equations used are the standard statistical mechanics
      equations for an ideal gas
  (5) All vibrations are strictly harmonic

freq.      24.64  E(vib)   ...       0.56 
freq.      27.23  E(vib)   ...       0.55 
freq.      45.15  E(vib)   ...       0.53 
freq.      81.24  E(vib)   ...       0.48 
freq.      88.36  E(vib)   ...       0.48 
freq.     107.61  E(vib)   ...       0.45 
freq.     111.07  E(vib)   ...       0.45 
freq.     140.59  E(vib)   ...       0.41 
freq.     179.81  E(vib)   ...       0.37 
freq.     202.58  E(vib)   ...       0.35 
freq.     213.45  E(vib)   ...       0.34 
freq.     231.92  E(vib)   ...       0.32 
freq.     242.36  E(vib)   ...       0.31 
freq.     255.47  E(vib)   ...       0.30 
freq.     341.47  E(vib)   ...       0.23 
freq.     357.92  E(vib)   ...       0.22 
freq.     384.71  E(vib)   ...       0.20 
freq.     400.59  E(vib)   ...       0.19 
freq.     442.70  E(vib)   ...       0.17 
freq.     458.14  E(vib)   ...       0.16 
freq.     467.51  E(vib)   ...       0.16 
freq.     490.31  E(vib)   ...       0.15 
freq.     501.80  E(vib)   ...       0.14 
freq.     518.26  E(vib)   ...       0.13 
freq.     531.26  E(vib)   ...       0.13 
freq.     582.33  E(vib)   ...       0.11 
freq.     596.67  E(vib)   ...       0.10 
freq.     622.95  E(vib)   ...       0.09 
freq.     656.62  E(vib)   ...       0.08 
freq.     683.33  E(vib)   ...       0.08 
freq.     691.55  E(vib)   ...       0.07 
freq.     702.13  E(vib)   ...       0.07 
freq.     737.88  E(vib)   ...       0.06 
freq.     739.08  E(vib)   ...       0.06 
freq.     775.78  E(vib)   ...       0.05 
freq.     805.85  E(vib)   ...       0.05 
freq.     810.99  E(vib)   ...       0.05 
freq.     822.32  E(vib)   ...       0.05 
freq.     831.69  E(vib)   ...       0.04 
freq.     840.77  E(vib)   ...       0.04 
freq.     880.23  E(vib)   ...       0.04 
freq.     912.24  E(vib)   ...       0.03 
freq.     925.76  E(vib)   ...       0.03 
freq.     937.01  E(vib)   ...       0.03 
freq.     973.16  E(vib)   ...       0.03 
freq.     985.67  E(vib)   ...       0.02 
freq.    1014.66  E(vib)   ...       0.02 
freq.    1071.77  E(vib)   ...       0.02 
freq.    1082.68  E(vib)   ...       0.02 
freq.    1083.74  E(vib)   ...       0.02 
freq.    1101.01  E(vib)   ...       0.02 
freq.    1116.12  E(vib)   ...       0.01 
freq.    1128.55  E(vib)   ...       0.01 
freq.    1134.32  E(vib)   ...       0.01 
freq.    1172.86  E(vib)   ...       0.01 
freq.    1181.48  E(vib)   ...       0.01 
freq.    1197.39  E(vib)   ...       0.01 
freq.    1201.95  E(vib)   ...       0.01 
freq.    1253.91  E(vib)   ...       0.01 
freq.    1255.31  E(vib)   ...       0.01 
freq.    1277.70  E(vib)   ...       0.01 
freq.    1289.34  E(vib)   ...       0.01 
freq.    1325.63  E(vib)   ...       0.01 
freq.    1365.69  E(vib)   ...       0.01 
freq.    1377.72  E(vib)   ...       0.01 
freq.    1406.98  E(vib)   ...       0.00 
freq.    1416.88  E(vib)   ...       0.00 
freq.    1427.69  E(vib)   ...       0.00 
freq.    1444.22  E(vib)   ...       0.00 
freq.    1449.23  E(vib)   ...       0.00 
freq.    1454.97  E(vib)   ...       0.00 
freq.    1470.19  E(vib)   ...       0.00 
freq.    1490.25  E(vib)   ...       0.00 
freq.    1501.08  E(vib)   ...       0.00 
freq.    1503.49  E(vib)   ...       0.00 
freq.    1504.20  E(vib)   ...       0.00 
freq.    1514.41  E(vib)   ...       0.00 
freq.    1534.37  E(vib)   ...       0.00 
freq.    1543.61  E(vib)   ...       0.00 
freq.    1553.50  E(vib)   ...       0.00 
freq.    1567.60  E(vib)   ...       0.00 
freq.    1754.73  E(vib)   ...       0.00 
freq.    3031.68  E(vib)   ...       0.00 
freq.    3036.93  E(vib)   ...       0.00 
freq.    3093.41  E(vib)   ...       0.00 
freq.    3097.98  E(vib)   ...       0.00 
freq.    3140.33  E(vib)   ...       0.00 
freq.    3175.70  E(vib)   ...       0.00 
freq.    3177.52  E(vib)   ...       0.00 
freq.    3181.91  E(vib)   ...       0.00 
freq.    3187.51  E(vib)   ...       0.00 
freq.    3195.83  E(vib)   ...       0.00 
freq.    3197.15  E(vib)   ...       0.00 
freq.    3203.09  E(vib)   ...       0.00 
freq.    3214.55  E(vib)   ...       0.00 
freq.    3230.45  E(vib)   ...       0.00 

------------
INNER ENERGY
------------

The inner energy is: U= E(el) + E(ZPE) + E(vib) + E(rot) + E(trans)
    E(el)   - is the total energy from the electronic structure calculation
              = E(kin-el) + E(nuc-el) + E(el-el) + E(nuc-nuc)
    E(ZPE)  - the the zero temperature vibrational energy from the frequency calculation
    E(vib)  - the the finite temperature correction to E(ZPE) due to population
              of excited vibrational states
    E(rot)  - is the rotational thermal energy
    E(trans)- is the translational thermal energy

Summary of contributions to the inner energy U:
Electronic energy                ...   -878.19013926 Eh
Zero point energy                ...      0.26356903 Eh     165.39 kcal/mol
Thermal vibrational correction   ...      0.01474854 Eh       9.25 kcal/mol
Thermal rotational correction    ...      0.00141627 Eh       0.89 kcal/mol
Thermal translational correction ...      0.00141627 Eh       0.89 kcal/mol
-----------------------------------------------------------------------
Total thermal energy                   -877.90898915 Eh


Summary of corrections to the electronic energy:
(perhaps to be used in another calculation)
Total thermal correction                  0.01758109 Eh      11.03 kcal/mol
Non-thermal (ZPE) correction              0.26356903 Eh     165.39 kcal/mol
-----------------------------------------------------------------------
Total correction                          0.28115011 Eh     176.42 kcal/mol


--------
ENTHALPY
--------

The enthalpy is H = U + kB*T
                kB is Boltzmann's constant
Total thermal energy              ...   -877.90898915 Eh 
Thermal Enthalpy correction       ...      0.00094421 Eh       0.59 kcal/mol
-----------------------------------------------------------------------
Total Enthalpy                    ...   -877.90804494 Eh


Note: Only C1 symmetry has been detected, increase convergence thresholds 
      if your molecule has a higher symmetry. Symmetry factor of 1.0 is   
      used for the rotational entropy correction. 
 

Note: Rotational entropy computed according to Herzberg 
Infrared and Raman Spectra, Chapter V,1, Van Nostrand Reinhold, 1945 
Point Group:  C1, Symmetry Number:   1  
Rotational constants in cm-1:     0.016813     0.009573     0.006452 

Vibrational entropy computed according to the QRRHO of S. Grimme
Chem.Eur.J. 2012 18 9955 using a reference frequency of 100.0 cm-1


-------
ENTROPY
-------

The entropy contributions are T*S = T*(S(el)+S(vib)+S(rot)+S(trans))
     S(el)   - electronic entropy
     S(vib)  - vibrational entropy
     S(rot)  - rotational entropy
     S(trans)- translational entropy
The entropies will be listed as multiplied by the temperature to get
units of energy

Electronic entropy                ...      0.00000000 Eh      0.00 kcal/mol
Vibrational entropy               ...      0.02601521 Eh     16.32 kcal/mol
Rotational entropy                ...      0.01601517 Eh     10.05 kcal/mol
Translational entropy             ...      0.02025841 Eh     12.71 kcal/mol
-----------------------------------------------------------------------
Final entropy term                ...      0.06228879 Eh     39.09 kcal/mol

In case the symmetry of your molecule has not been determined correctly
or in case you have a reason to use a different symmetry number we print 
out the resulting rotational entropy values for sn=1,12:

 non-linear molecules -----------------------------------
|  sn= 1 | S(rot)=       0.01601517 Eh     10.05 kcal/mol|
|  sn= 2 | S(rot)=       0.01536071 Eh      9.64 kcal/mol|
|  sn= 3 | S(rot)=       0.01497788 Eh      9.40 kcal/mol|
|  sn= 4 | S(rot)=       0.01470625 Eh      9.23 kcal/mol|
|  sn= 5 | S(rot)=       0.01449557 Eh      9.10 kcal/mol|
|  sn= 6 | S(rot)=       0.01432342 Eh      8.99 kcal/mol|
|  sn= 7 | S(rot)=       0.01417788 Eh      8.90 kcal/mol|
|  sn= 8 | S(rot)=       0.01405180 Eh      8.82 kcal/mol|
|  sn= 9 | S(rot)=       0.01394059 Eh      8.75 kcal/mol|
|  sn=10 | S(rot)=       0.01384111 Eh      8.69 kcal/mol|
|  sn=11 | S(rot)=       0.01375112 Eh      8.63 kcal/mol|
|  sn=12 | S(rot)=       0.01366897 Eh      8.58 kcal/mol|
 linear molecules ---------------------------------------
|  Dinfh | S(rot)=       0.01008764 Eh      6.33 kcal/mol|
|  Cinfv | S(rot)=       0.01074210 Eh      6.74 kcal/mol|
 --------------------------------------------------------


-------------------
GIBBS FREE ENERGY
-------------------

The Gibbs free energy is G = H - T*S

Total enthalpy                    ...   -877.90804494 Eh 
Total entropy correction          ...     -0.06228879 Eh    -39.09 kcal/mol
-----------------------------------------------------------------------
Final Gibbs free energy         ...   -877.97033373 Eh

For completeness - the Gibbs free energy minus the electronic energy
G-E(el)                           ...      0.21980553 Eh    137.93 kcal/mol



--------------------------------
SUGGESTED CITATIONS FOR THIS RUN
--------------------------------

Below you find a list of papers that are relevant to this ORCA run
We neither can nor want to force you to cite these papers, but we appreciate if you do
You receive ORCA, which is the product of decades of hard work by many enthusiastic individuals, for free
The only thing we kindly ask in return is that you cite our papers,
We deeply appreciate it, if you show your appreciation for ORCA by not just citing the generic ORCA reference.

Please note that relegating all ORCA citations to the supporting information does *not* help us.
SI sections are not indexed - citations you put there will not count into any citation statistics
But we need these citations in order to attract the funding resources that allow us to do what we are doing

Therefore, if you are a happy ORCA user, please consider citing a few of the papers listed below in the main body of your paper

In addition to the list printed below, the program has created the file 3.bibtex that contains the list in bibtex format
You can import this file easily into all common literature databanks and citation aid programs


List of essential papers. We consider these as the minimum necessary citations

  1. Neese,F.
     Software update: the ORCA program system, version 5.0
     WIRES Comput. Molec. Sci., 2022 12(1)e1606
     doi.org/10.1002/wcms.1606

List of papers to cite with high priority. The work reported in these papers was absolutely
necessary for this run to complete.
Our perspective: the developers of density functionals and basis sets usually get cited in chemistry papers
Good! But without the algorithms to do something with them, the functionals or basis sets would not do anything.
Hence, in our opinion, the algorithm design and method developments papers are equally worthy of getting cited

  1. Neese,F.; Olbrich,G.
     Efficient use of the resolution of the identity approximation in time-dependent density functional calculations with hybrid density functionals
     Chem. Phys. Lett., 2002 362 170-178
     doi.org/10.1016/s0009-2614(02)01053-9
  2. Neese,F.
     An improvement of the resolution of the identity approximation for the formation of the Coulomb matrix
     J. Comp. Chem., 2003 24(14)1740-1747
     doi.org/10.1002/jcc.10318
  3. Neese,F.; Wennmohs,F.; Hansen,A.; Becker,U.
     Efficient, approximate and parallel Hartree-Fock and hybrid DFT calculations. A 'chain-of-spheres' algorithm for the Hartree-Fock exchange
     Chem. Phys., 2009 356(1-3)98-109
     doi.org/10.1016/j.chemphys.2008.10.036
  4. Petrenko,T.; Kossmann,S.; Neese,F.
     Efficient time-dependent density functional theory approximations for hybrid density functionals: Analytical gradients and parallelization
     J. Chem. Phys., 2011 134 054116
     doi.org/10.1063/1.3533441
  5. Bykov,D.; Petrenko,T.; Izsak,R.; Kossmann,S.; Becker,U.; Valeev,E.; Neese,F.
     Efficient implementation of the analytic second derivatives of Hartree-Fock and hybrid DFT energies: a detailed analysis of different approximations
     Molec. Phys., 2015 113 1961-1977
     doi.org/10.1080/00268976.2015.1025114
  6. Garcia-Rates,M.; Neese,F.
     Effect of the Solute Cavity on the Solvation Energy and its Derivatives within the Framework of the Gaussian Charge Scheme
     J. Comput. Chem., 2020 41 922-939
     doi.org/10.1002/jcc.26139
  7. Helmich-Paris,B.; de Souza,B.; Neese,F.; Izsák,R.
     An improved chain of spheres for exchange algorithm
     J. Chem. Phys., 2021 155 104109
     doi.org/doi: 10.1063/5.0058766.
  8. Neese,F.
     The SHARK Integral Generation and Digestion System
     J. Comp. Chem., 2022  1-16
     doi.org/10.1002/jcc.26942

List of suggested additional citations. These are papers that are important in the 'surrounding' of 
of this run, or papers that preceded the highly important papers. If you like your results we are grateful for a citation.

  1. Izsak,R.; Neese,F.
     An overlap fitted chain of spheres exchange method
     J. Chem. Phys., 2011 135 144105
     doi.org/10.1063/1.3646921
  2. Izsak,R.; Hansen,A.; Neese,F.
     The resolution of identity and chain of spheres approximations for the LPNO-CCSD singles Fock term
     Molec. Phys., 2012 110 2413-2417
     doi.org/10.1080/00268976.2012.687466
  3. Neese,F.
     The ORCA program system
     WIRES Comput. Molec. Sci., 2012 2(1)73-78
     doi.org/10.1002/wcms.81
  4. Izsak,R.; Neese,F.; Klopper,W.
     Robust fitting techniques in the chain of spheres approximation to the Fock exchange: The role of the complementary space
     J. Chem. Phys., 2013 139 
     doi.org/10.1063/1.4819264
  5. Neese,F.
     Software update: the ORCA program system, version 4.0
     WIRES Comput. Molec. Sci., 2018 8(1)1-6
     doi.org/10.1002/wcms.1327
  6. Neese,F.; Wennmohs,F.; Becker,U.; Riplinger,C.
     The ORCA quantum chemistry program package
     J. Chem. Phys., 2020 152 Art. No. L224108
     doi.org/10.1063/5.0004608

List of optional additional citations

  1. Neese,F.
     Approximate second-order SCF convergence for spin unrestricted wavefunctions
     Chem. Phys. Lett., 2000 325(1-3)93-98
     doi.org/10.1016/s0009-2614(00)00662-x

Timings for individual modules:

Sum of individual times          ...    97734.097 sec (=1628.902 min)
Startup calculation              ...      308.928 sec (=   5.149 min)   0.3 %
SCF iterations                   ...     2805.251 sec (=  46.754 min)   2.9 %
Property integrals               ...       42.430 sec (=   0.707 min)   0.0 %
Property calculations            ...        0.206 sec (=   0.003 min)   0.0 %
CIS module                       ...     6139.240 sec (= 102.321 min)   6.3 %
Geometry relaxation              ...        1.056 sec (=   0.018 min)   0.0 %
Numerical frequency calculation  ...    88436.986 sec (=1473.950 min)  90.5 %
                             ****ORCA TERMINATED NORMALLY****
TOTAL RUN TIME: 1 days 3 hours 2 minutes 7 seconds 864 msec
