
                                 *****************
                                 * O   R   C   A *
                                 *****************

                                            #,                                       
                                            ###                                      
                                            ####                                     
                                            #####                                    
                                            ######                                   
                                           ########,                                 
                                     ,,################,,,,,                         
                               ,,#################################,,                 
                          ,,##########################################,,             
                       ,#########################################, ''#####,          
                    ,#############################################,,   '####,        
                  ,##################################################,,,,####,       
                ,###########''''           ''''###############################       
              ,#####''   ,,,,##########,,,,          '''####'''          '####       
            ,##' ,,,,###########################,,,                        '##       
           ' ,,###''''                  '''############,,,                           
         ,,##''                                '''############,,,,        ,,,,,,###''
      ,#''                                            '''#######################'''  
     '                                                          ''''####''''         
             ,#######,   #######,   ,#######,      ##                                
            ,#'     '#,  ##    ##  ,#'     '#,    #''#        ,####,   ,####,        
            ##       ##  ##   ,#'  ##            #'  '#       #'       #'  '#        
            ##       ##  #######   ##           ,######,      #####,   #    #        
            '#,     ,#'  ##    ##  '#,     ,#' ,#      #,     #,   #   #,  ,#        
             '#######'   ##     ##  '#######'  #'      '#     '####' # '####'        



                #########################################################
                #                        -***-                          #
                #          Department of theory and spectroscopy        #
                #                                                       #
                #                      Frank Neese                      #
                #                                                       #
                #     Directorship, Architecture, Infrastructure        #
                #                    SHARK, DRIVERS                     #
                #        Core code/Algorithms in most modules           #
                #                                                       #
                #        Max Planck Institute fuer Kohlenforschung      #
                #                Kaiser Wilhelm Platz 1                 #
                #                 D-45470 Muelheim/Ruhr                 #
                #                      Germany                          #
                #                                                       #
                #                  All rights reserved                  #
                #                        -***-                          #
                #########################################################


                         Program Version 6.0.1  -  RELEASE   -


 With contributions from (in alphabetic order):
[Max-Planck-Institut fuer Kohlenforschung]                               
  Daniel Aravena         : Magnetic Suceptibility                        
  Michael Atanasov       : Ab Initio Ligand Field Theory (pilot matlab implementation)
  Alexander A. Auer      : GIAO ZORA, VPT2 properties, NMR spectrum      
  Ute Becker             : All parallelization in ORCA, NUMFREQ, NUMCALC 
  Giovanni Bistoni       : ED, misc. LED, open-shell LED, HFLD           
  Martin Brehm           : Molecular dynamics                            
  Dmytro Bykov           : pre 5.0 version of the SCF Hessian            
  Marcos Casanova-Páez   : Triplet and SCS-CIS(D). UHF-(DLPNO)-IP/EA/STEOM-CCSD. UHF-CVS-IP/STEOM-CCSD   
  Vijay G. Chilkuri      : MRCI spin determinant printing, contributions to CSF-ICE 
  Pauline Colinet        : FMM embedding                                 
  Dipayan Datta          : RHF DLPNO-CCSD density                        
  Achintya Kumar Dutta   : EOM-CC, STEOM-CC                              
  Nicolas Foglia         : Exact transition moments, OPA infrastructure, MCD improvements    
  Dmitry Ganyushin       : Spin-Orbit,Spin-Spin,Magnetic field MRCI      
  Miquel Garcia-Rates    : C-PCM and meta-GGA Hessian, CCSD/C-PCM, Gaussian charge scheme 
  Tiago L. C. Gouveia    : GS-ROHF, GS-ROCIS                             
  Yang Guo               : DLPNO-NEVPT2, F12-NEVPT2, CIM, IAO-localization        
  Andreas Hansen         : Spin unrestricted coupled pair/coupled cluster methods 
  Ingolf Harden          : AUTO-CI MPn and infrastructure                
  Benjamin Helmich-Paris : MC-RPA, TRAH-(SCF,CASSCF), AVAS, COSX integrals, SCF dyn. polar. 
  Lee Huntington         : MR-EOM, pCC                                   
  Robert Izsak           : Overlap fitted RIJCOSX, COSX-SCS-MP3, EOM     
  Riya Kayal             : Wick's Theorem for AUTO-CI, AUTO-CI UHF-CCSDT 
  Emily Kempfer          : AUTO-CI, RHF CISDT and CCSDT                  
  Christian Kollmar      : KDIIS, OOCD, Brueckner-CCSD(T), CCSD density, CASPT2, CASPT2-K, improved NEVPT2 
  Axel Koslowski         : Symmetry handling                             
  Simone Kossmann        : meta-GGA functionals, TD-DFT gradient, OOMP2, (MP2 Hessian; deprecated post 5.0) 
  Lucas Lang             : DCDCAS                                        
  Marvin Lechner         : AUTO-CI (C++ implementation), FIC-MRCC        
  Spencer Leger          : CASSCF response                               
  Dagmar Lenk            : GEPOL surface, SMD, ORCA-2-JSON               
  Dimitrios Liakos       : Extrapolation schemes; Compound Job, initial MDCI parallelization 
  Dimitrios Manganas     : Further ROCIS development; embedding schemes. LFT, Crystal Embedding 
  Dimitrios Pantazis     : SARC Basis sets                               
  Anastasios Papadopoulos: AUTO-CI, single reference methods and gradients 
  Taras Petrenko         : pre 6.0 DFT Hessian and TD-DFT gradient, (ASA, deprecated), ECA, 1-Electron XAS/XES, NRVS 
  Peter Pinski           : DLPNO-MP2, DLPNO-MP2 Gradient                 
  Christoph Reimann      : Effective Core Potentials                     
  Marius Retegan         : Local ZFS, SOC                                
  Christoph Riplinger    : Optimizer, TS searches, QM/MM, DLPNO-CCSD(T), (RO)-DLPNO pert. Triples 
  Michael Roemelt        : Original ROCIS implementation                 
  Masaaki Saitow         : Open-shell DLPNO-CCSD energy and density      
  Barbara Sandhoefer     : DKH picture change effects                    
  Kantharuban Sivalingam : CASSCF convergence/infrastructure, NEVPT2 and variants, FIC-MRCI 
  Bernardo de Souza      : ESD, SOC TD-DFT                               
  Georgi L. Stoychev     : AutoAux, RI-MP2 NMR, DLPNO-MP2 response, X2C  
  Van Anh Tran           : RI-MP2 g-tensors                              
  Willem Van den Heuvel  : Paramagnetic NMR                              
  Zikuan Wang            : NOTCH, Electric field optimization            
  Frank Wennmohs         : Technical directorship and infrastructure     
  Hang Xu                : AUTO-CI-Response properties                   
                                                                         
[FACCTs GmbH]                                                            
  Markus Bursch, Miquel Garcia-Rates, Christoph Riplinger, Bernardo de Souza, Georgi L. Stoychev 
                                                                 
  APM, Basis sets (HGBS, AHGBS, def-TZVP (Ac-Lr), def2-XVPD (La-Lu)), CI-OPT, improved COSX, DLPNO-Multilevel,           
  DOCKER, DRACO, updates on ESD, GOAT, IRC, LR-CPCM, MBIS, meta-GGA TD-DFT gradient, ML-optimized integration grids, 
  MM, NACMEs, nearIR, NEB, NEB-TS, NL-DFT gradient (VV10), 2- and 3-layer-ONIOM, interface openCOSMO-RS, QMMM,   
  Crystal-QMMM, SF, symmetry and pop. for TD-DFT, r2SCAN hybrids, SOLVATOR                                   
                                                                         
[Other institutions]                                                     
  V. Asgeirsson          : NEB                                           
  Christoph Bannwarth    : sTDA-DFT, sTD-DFT, PBEh-3c, B97-3c, D3        
  Sebastian Ehlert       : rSCAN, r2SCAN, r2SCAN-3c, D4, dhf basis sets  
  Marvin Friede          : D4 for Fr, Ra, Ac-Lr                          
  Lars Goerigk           : TD-DFT with DH, B97 family of functionals     
  Stefan Grimme          : VdW corrections, initial TS optimization, DFT functionals, gCP, sTDA/sTD-DF 
  Waldemar Hujo          : DFT-NL                                        
  H. Jonsson             : NEB                                           
  Holger Kruse           : gCP                                           
  Marcel Mueller         : wB97X-3c, vDZP basis set                      
  Hagen Neugebauer       : wr2SCAN                                       
  Tobias Risthaus        : range-separated hybrid DFT                    
  Lukas Wittmann         : regularized MP2, r2SCAN double-hybrids, wr2SCAN        
                                                                         
We gratefully acknowledge several colleagues who have allowed us to      
interface, adapt or use parts of their codes:                            
  Ed Valeev, F. Pavosevic, A. Kumar             : LibInt (2-el integral package), F12 methods 
  Garnet Chan, S. Sharma, J. Yang, R. Olivares  : DMRG                   
  Ulf Ekstrom                                   : XCFun DFT Library      
  Mihaly Kallay                                 : mrcc  (arbitrary order and MRCC methods)
  Frank Weinhold                                : gennbo (NPA and NBO analysis)           
  Simon Mueller                                 : openCOSMO-RS                            
  Christopher J. Cramer and Donald G. Truhlar   : smd solvation model                     
  S Lehtola, MJT Oliveira, MAL Marques          : LibXC Library                           
  Liviu Ungur et al                             : ANISO software                          


 Your calculation uses the libint2 library for the computation of 2-el integrals
 For citations please refer to: http://libint.valeyev.net

 Your ORCA version has been built with support for libXC version: 6.2.2
 For citations please refer to: https://libxc.gitlab.io

 This ORCA versions uses:
   CBLAS   interface :  Fast vector & matrix operations
   LAPACKE interface :  Fast linear algebra routines
   SCALAPACK package :  Parallel linear algebra routines
   Shared memory     :  Shared parallel matrices
   BLAS/LAPACK       :  OpenBLAS 0.3.27  USE64BITINT DYNAMIC_ARCH NO_AFFINITY Cooperlake SINGLE_THREADED
        Core in use  :  Cooperlake
   Copyright (c) 2011-2014, The OpenBLAS Project


Warning: RI is on but no J-basis has been assigned. Assigning Def2/J (nothing to worry about!)
================================================================================

----- Orbital basis set information -----
Your calculation utilizes the basis: def2-TZVP(-f)
   F. Weigend and R. Ahlrichs, Phys. Chem. Chem. Phys. 7, 3297 (2005).

----- AuxJ basis set information -----
Your calculation utilizes the auxiliary basis: def2/J
   F. Weigend, Phys. Chem. Chem. Phys. 8, 1057 (2006).

================================================================================
                                        WARNINGS
                       Please study these warnings very carefully!
================================================================================

INFO   : Checking CIS options ...

WARNING: (CIS/TDDFT): Analytic excited state gradients requested
  ===> : turning on equilibrium dielectric conditions.

WARNING: Analytical Frequencies for this method not available!
  ===> : Switching to Numerical Frequencies!

WARNING: Geometry Optimization
  ===> : Switching off AutoStart
         For restart on a previous wavefunction, please use MOREAD

WARNING: CIS/ROCIS methods need fully converged wavefunctions
  ===> : Setting SCFConvForced true
         You can overwrite this default with %scf ConvForced false 


================================================================================
                                       INPUT FILE
================================================================================
NAME = hbq-dcp-es.inp
|  1> ! B3LYP/G VERYTIGHTOPT FREQ Def2-TZVP(-f) TightSCF CPCM(Water)
|  2> %tddft
|  3>     NRoots 3
|  4>     IRoot 1
|  5> end 
|  6> 
|  7> * xyz 1 1 
|  8>   C          -4.79420694476123      0.32457264471294      0.45253131088809
|  9>   C          -5.40035858134128     -0.52945715555899      1.36872220203200
| 10>   C          -4.61580576671319     -1.11387907501961      2.33607466472850
| 11>   C          -3.42491624764933      0.63375519524961      0.54008962759914
| 12>   C          -2.63123785513836      0.20129415154115      1.62506107525933
| 13>   O          -2.94889706292037      1.34508884467599     -0.51265397420962
| 14>   C          -3.22470609984837     -0.78906621525749      2.46094912391972
| 15>   C          -2.43539840728926     -1.47663901569636      3.39702039695700
| 16>   C          -1.08323754718344     -1.22342628277849      3.47717987135812
| 17>   C          -1.29079198186563      0.61165276141407      1.90630085022838
| 18>   C          -0.48014968856850     -0.17489059301156      2.73029918914535
| 19>   N          -0.73390049786782      1.79946098363590      1.35103014474799
| 20>   C           0.66279829812877      1.83746416658680      1.21940120162765
| 21>   C           1.47491758006732      0.98382322945827      1.91591554449395
| 22>   C           0.92562117154074      0.03822770532118      2.77791438486192
| 23>   C          -1.89364900765188      0.84212547479173     -1.29219013279362
| 24>   O          -1.33866091989566     -0.20016151629819     -1.02190119690199
| 25>   N          -1.64180787402662      1.65351218775322     -2.32885000536847
| 26>   C          -2.45150202155794      2.80795519833838     -2.71063135325628
| 27>   C          -0.62427465799344      1.24625001383695     -3.29363711645106
| 28>   H          -1.09422941711889      0.81743690335731     -4.18235790554419
| 29>   H           0.03570293045761      0.51169675720234     -2.84496563160375
| 30>   H          -0.05165357670342      2.12500359198530     -3.58830971135861
| 31>   H          -1.78779770395480      3.64787754252288     -2.91501382152261
| 32>   H          -3.13669836347259      3.08174487029144     -1.91927650966347
| 33>   H          -3.01251467548820      2.57662321670135     -3.61913279446867
| 34>   H          -5.03319591214908     -1.82980675828789      3.03167114051789
| 35>   H          -5.34698886724289      0.73524279554568     -0.38149590722584
| 36>   H          -6.45283310965282     -0.75979057879607      1.28809834897596
| 37>   H          -2.88848571498686     -2.23819996262463      4.01742822297844
| 38>   H          -0.45875882401991     -1.81149287044037      4.13754416259928
| 39>   H           1.04810828256920      2.62466863245805      0.59008554224782
| 40>   H           2.54561589831688      1.08043371321243      1.79974668063730
| 41>   H           1.54046041947630     -0.57300100586028      3.42146654834765
| 42>   P          -1.49925594165634      3.33200601402942      1.59770060255619
| 43>   O          -2.93310832301009      3.19793096513792      1.89355103561490
| 44>   O          -1.04768283352997      4.04206615515814      0.26910126589558
| 45>   O          -0.65232771464024      4.08966710708609      2.69995540590949
| 46>   C          -1.22256590737109      5.48792455654051      0.06813378727543
| 47>   C          -1.06606513561721      4.19457545575517      4.10310605094475
| 48>   C          -0.19016944287035      5.95698562441581     -0.92706289170746
| 49>   H          -1.10757191671453      5.99019302694293      1.02756073792298
| 50>   H          -2.23765812213082      5.63668105823207     -0.29700645110388
| 51>   H           0.81943749602992      5.79969200057830     -0.54598399903792
| 52>   H          -0.32991943789526      7.02513577548408     -1.10361756807041
| 53>   H          -0.29652955112453      5.43509556314527     -1.87844900116785
| 54>   C          -0.14406685263767      3.38700117105129      4.98603426788228
| 55>   H          -2.10123726067602      3.86936173387244      4.18682682725795
| 56>   H          -1.01075066337844      5.25742261028234      4.33187678905785
| 57>   H           0.89100648289557      3.71068140652761      4.87024010134281
| 58>   H          -0.20960976060889      2.32255925022693      4.75839012696700
| 59>   H          -0.43480237999079      3.53398099062609      6.02837873357443
| 60> *
| 61> 
| 62> 
| 63>                          ****END OF INPUT****
================================================================================

                       *****************************
                       * Geometry Optimization Run *
                       *****************************

Geometry optimization settings:
Update method            Update   .... BFGS
Choice of coordinates    CoordSys .... (2022) Redundant Internals
Initial Hessian          InHess   .... Almloef's Model
Max. no of cycles        MaxIter  .... 156

Convergence Tolerances:
Energy Change            TolE     ....  2.0000e-07 Eh
Max. Gradient            TolMAXG  ....  3.0000e-05 Eh/bohr
RMS Gradient             TolRMSG  ....  8.0000e-06 Eh/bohr
Max. Displacement        TolMAXD  ....  2.0000e-04 bohr
RMS Displacement         TolRMSD  ....  1.0000e-04 bohr
Strict Convergence                .... False

------------------------------------------------------------------------------
                        ORCA OPTIMIZATION COORDINATE SETUP
------------------------------------------------------------------------------

The optimization will be done in redundant internal coordinates (2022)
Making redundant internal coordinates   ...  (2022 redundants) done
Evaluating the initial hessian          ...  (Almloef) done
Evaluating the coordinates              ...  done
Calculating the B-matrix                .... done
Calculating the G-matrix                .... done
Diagonalizing the G-matrix              .... done
Small eigenvalue found = 1.462e-03
Small eigenvalue found = 4.657e-03
Small eigenvalue found = 5.816e-03
Small eigenvalue found = 6.698e-03
Small eigenvalue found = 7.907e-03
Small eigenvalue found = 1.292e-02
Small eigenvalue found = 2.040e-02
Small eigenvalue found = 2.091e-02
Small eigenvalue found = 2.564e-02
The first mode is                       ....  109
The number of degrees of freedom        ....  150

    -----------------------------------------------------------------
                    Redundant Internal Coordinates


    -----------------------------------------------------------------
         Definition                    Initial Value    Approx d2E/dq
    -----------------------------------------------------------------
      1. B(C   1,C   0)                  1.3915         0.621428   
      2. B(C   2,C   1)                  1.3758         0.658239   
      3. B(C   3,C   0)                  1.4065         0.588069   
      4. B(C   4,C   3)                  1.4121         0.576012   
      5. B(O   5,C   3)                  1.3568         0.632225   
      6. B(C   6,C   4)                  1.4254         0.548632   
      7. B(C   6,C   2)                  1.4340         0.531613   
      8. B(C   7,C   6)                  1.4043         0.592873   
      9. B(C   8,C   7)                  1.3780         0.652958   
     10. B(C   9,C   4)                  1.4298         0.539839   
     11. B(C  10,C   9)                  1.3981         0.606414   
     12. B(C  10,C   8)                  1.4216         0.556299   
     13. B(N  11,C   9)                  1.4245         0.492894   
     14. B(C  12,N  11)                  1.4034         0.532713   
     15. B(C  13,C  12)                  1.3687         0.675619   
     16. B(C  14,C  13)                  1.3925         0.619196   
     17. B(C  14,C  10)                  1.4226         0.554215   
     18. B(C  15,O   5)                  1.4051         0.529476   
     19. B(O  16,C  15)                  1.2114         1.078599   
     20. B(N  17,C  15)                  1.3403         0.671660   
     21. B(C  18,N  17)                  1.4609         0.431349   
     22. B(C  19,N  17)                  1.4602         0.432463   
     23. B(H  20,C  19)                  1.0930         0.356205   
     24. B(H  21,C  19)                  1.0846         0.367260   
     25. B(H  22,C  19)                  1.0895         0.360808   
     26. B(H  23,C  18)                  1.0898         0.360315   
     27. B(H  24,C  18)                  1.0820         0.370857   
     28. B(H  25,C  18)                  1.0925         0.356767   
     29. B(H  26,C   2)                  1.0820         0.370905   
     30. B(H  27,C   0)                  1.0816         0.371410   
     31. B(H  28,C   1)                  1.0804         0.373031   
     32. B(H  29,C   7)                  1.0817         0.371190   
     33. B(H  30,C   8)                  1.0825         0.370115   
     34. B(H  31,C  12)                  1.0790         0.374980   
     35. B(H  32,C  13)                  1.0813         0.371786   
     36. B(H  33,C  14)                  1.0797         0.373964   
     37. B(P  34,N  11)                  1.7307         0.538035   
     38. B(O  35,P  34)                  1.4702         1.401017   
     39. B(O  36,P  34)                  1.5727         0.961472   
     40. B(O  37,P  34)                  1.5831         0.925212   
     41. B(C  38,O  36)                  1.4702         0.416799   
     42. B(C  39,O  37)                  1.4666         0.422290   
     43. B(C  40,C  38)                  1.5087         0.403930   
     44. B(H  41,C  38)                  1.0890         0.361379   
     45. B(H  42,C  38)                  1.0890         0.361458   
     46. B(H  43,C  40)                  1.0905         0.359392   
     47. B(H  44,C  40)                  1.0916         0.357956   
     48. B(H  45,H  23)                  2.5480         0.000325   
     49. B(H  45,C  40)                  1.0903         0.359665   
     50. B(C  46,C  39)                  1.5106         0.401216   
     51. B(H  47,C  39)                  1.0883         0.362382   
     52. B(H  48,C  39)                  1.0886         0.361963   
     53. B(H  49,C  46)                  1.0907         0.359219   
     54. B(H  50,C  46)                  1.0905         0.359461   
     55. B(H  51,C  46)                  1.0921         0.357375   
     56. A(C   1,C   0,C   3)          121.2001         0.430139   
     57. A(C   1,C   0,H  27)          121.2070         0.354901   
     58. A(C   3,C   0,H  27)          117.5231         0.351601   
     59. A(C   0,C   1,C   2)          118.3763         0.438954   
     60. A(C   0,C   1,H  28)          120.4028         0.355163   
     61. A(C   2,C   1,H  28)          121.1594         0.358653   
     62. A(C   1,C   2,H  26)          120.8727         0.358304   
     63. A(C   6,C   2,H  26)          117.9137         0.345591   
     64. A(C   1,C   2,C   6)          121.2125         0.426805   
     65. A(C   4,C   3,O   5)          124.0226         0.427064   
     66. A(C   0,C   3,O   5)          114.1114         0.428653   
     67. A(C   0,C   3,C   4)          121.8493         0.424329   
     68. A(C   6,C   4,C   9)          118.3204         0.414291   
     69. A(C   3,C   4,C   9)          126.1683         0.417897   
     70. A(C   3,C   4,C   6)          115.4255         0.419102   
     71. A(C   3,O   5,C  15)          120.4178         0.417950   
     72. A(C   4,C   6,C   7)          119.8068         0.421264   
     73. A(C   2,C   6,C   7)          119.4993         0.418903   
     74. A(C   2,C   6,C   4)          120.6787         0.413163   
     75. A(C   6,C   7,H  29)          119.4448         0.352050   
     76. A(C   6,C   7,C   8)          120.0225         0.434617   
     77. A(C   8,C   7,H  29)          120.4641         0.357860   
     78. A(C  10,C   8,H  30)          118.4529         0.348116   
     79. A(C   7,C   8,H  30)          120.1136         0.357684   
     80. A(C   7,C   8,C  10)          121.4157         0.429672   
     81. A(C   4,C   9,C  10)          119.8706         0.421748   
     82. A(C  10,C   9,N  11)          118.1734         0.412284   
     83. A(C   4,C   9,N  11)          121.9472         0.403886   
     84. A(C   9,C  10,C  14)          120.5562         0.423733   
     85. A(C   8,C  10,C  14)          120.8044         0.417261   
     86. A(C   8,C  10,C   9)          118.5939         0.424017   
     87. A(C   9,N  11,P  34)          120.6583         0.428069   
     88. A(C   9,N  11,C  12)          116.6280         0.400357   
     89. A(C  12,N  11,P  34)          115.4359         0.434084   
     90. A(N  11,C  12,H  31)          115.4588         0.344229   
     91. A(N  11,C  12,C  13)          121.7284         0.426166   
     92. A(C  13,C  12,H  31)          122.6801         0.360568   
     93. A(C  12,C  13,H  32)          118.4981         0.360043   
     94. A(C  12,C  13,C  14)          120.2978         0.440738   
     95. A(C  14,C  13,H  32)          121.1843         0.354745   
     96. A(C  10,C  14,H  33)          119.8572         0.348503   
     97. A(C  10,C  14,C  13)          118.0874         0.425317   
     98. A(C  13,C  14,H  33)          121.9227         0.355097   
     99. A(O  16,C  15,N  17)          127.3991         0.480759   
    100. A(O   5,C  15,N  17)          110.7032         0.422486   
    101. A(O   5,C  15,O  16)          121.8901         0.460226   
    102. A(C  18,N  17,C  19)          115.7205         0.377174   
    103. A(C  15,N  17,C  19)          118.2384         0.407554   
    104. A(C  15,N  17,C  18)          125.1967         0.407369   
    105. A(N  17,C  18,H  25)          109.5484         0.329597   
    106. A(H  23,C  18,H  24)          109.1356         0.292216   
    107. A(H  23,C  18,H  25)          108.6603         0.290442   
    108. A(N  17,C  18,H  24)          111.0894         0.331715   
    109. A(N  17,C  18,H  23)          108.6935         0.330136   
    110. A(H  24,C  18,H  25)          109.6690         0.291761   
    111. A(H  21,C  19,H  22)          109.7746         0.291831   
    112. A(H  20,C  19,H  22)          108.8158         0.290433   
    113. A(N  17,C  19,H  22)          108.6638         0.330351   
    114. A(H  20,C  19,H  21)          109.4077         0.291242   
    115. A(N  17,C  19,H  21)          109.8523         0.331322   
    116. A(N  17,C  19,H  20)          110.3076         0.329651   
    117. A(N  11,P  34,O  36)           98.7672         0.517569   
    118. A(N  11,P  34,O  35)          112.2855         0.555690   
    119. A(O  36,P  34,O  37)          102.6212         0.573516   
    120. A(O  35,P  34,O  37)          115.1688         0.616613   
    121. A(N  11,P  34,O  37)          106.6454         0.513857   
    122. A(O  35,P  34,O  36)          119.4209         0.621224   
    123. A(P  34,O  36,C  38)          121.6919         0.461281   
    124. A(P  34,O  37,C  39)          123.3280         0.459151   
    125. A(H  41,C  38,H  42)          109.3190         0.291174   
    126. A(C  40,C  38,H  42)          111.9754         0.328721   
    127. A(O  36,C  38,H  42)          106.9212         0.328442   
    128. A(C  40,C  38,H  41)          111.4370         0.328709   
    129. A(O  36,C  38,H  41)          108.6982         0.328430   
    130. A(O  36,C  38,C  40)          108.3319         0.372897   
    131. A(C  46,C  39,H  48)          111.5999         0.328431   
    132. A(O  37,C  39,H  48)          104.8660         0.329228   
    133. A(C  46,C  39,H  47)          112.0770         0.328494   
    134. A(O  37,C  39,H  47)          108.6966         0.329291   
    135. A(O  37,C  39,C  46)          110.4124         0.373305   
    136. A(H  47,C  39,H  48)          108.9008         0.291364   
    137. A(H  44,C  40,H  45)          108.3455         0.290512   
    138. A(H  43,C  40,H  45)          109.0372         0.290694   
    139. A(C  38,C  40,H  45)          111.1004         0.328451   
    140. A(H  43,C  40,H  44)          108.4315         0.290477   
    141. A(C  38,C  40,H  44)          108.8623         0.328193   
    142. A(C  38,C  40,H  43)          110.9871         0.328410   
    143. A(H  50,C  46,H  51)          108.3381         0.290412   
    144. A(H  49,C  46,H  51)          108.3033         0.290381   
    145. A(C  39,C  46,H  51)          108.8711         0.327741   
    146. A(H  49,C  46,H  50)          108.9391         0.290646   
    147. A(C  39,C  46,H  50)          111.2935         0.328055   
    148. A(C  39,C  46,H  49)          111.0105         0.328019   
    149. D(C   2,C   1,C   0,C   3)     -2.6915         0.026730   
    150. D(H  28,C   1,C   0,H  27)     -2.9838         0.026730   
    151. D(C   2,C   1,C   0,H  27)    174.1954         0.026730   
    152. D(H  28,C   1,C   0,C   3)   -179.8706         0.026730   
    153. D(C   6,C   2,C   1,H  28)   -178.7502         0.030222   
    154. D(H  26,C   2,C   1,C   0)   -176.3133         0.030222   
    155. D(C   6,C   2,C   1,C   0)      4.0929         0.030222   
    156. D(H  26,C   2,C   1,H  28)      0.8435         0.030222   
    157. D(C   4,C   3,C   0,H  27)    176.8334         0.023791   
    158. D(O   5,C   3,C   0,C   1)    172.4026         0.023791   
    159. D(O   5,C   3,C   0,H  27)     -4.5951         0.023791   
    160. D(C   4,C   3,C   0,C   1)     -6.1689         0.023791   
    161. D(C   6,C   4,C   3,O   5)   -165.6358         0.022781   
    162. D(C   9,C   4,C   3,C   0)   -170.6532         0.022781   
    163. D(C   6,C   4,C   3,C   0)     12.7910         0.022781   
    164. D(C   9,C   4,C   3,O   5)     10.9200         0.022781   
    165. D(C  15,O   5,C   3,C   4)     57.0494         0.029411   
    166. D(C  15,O   5,C   3,C   0)   -121.4866         0.029411   
    167. D(C   7,C   6,C   4,C   9)     -9.5067         0.020587   
    168. D(C   2,C   6,C   4,C   9)    171.9168         0.020587   
    169. D(C   2,C   6,C   4,C   3)    -11.2414         0.020587   
    170. D(C   7,C   6,C   4,C   3)    167.3351         0.020587   
    171. D(C   7,C   6,C   2,H  26)      4.9543         0.019293   
    172. D(C   4,C   6,C   2,H  26)   -176.4648         0.019293   
    173. D(C   4,C   6,C   2,C   1)      3.1406         0.019293   
    174. D(C   7,C   6,C   2,C   1)   -175.4402         0.019293   
    175. D(H  29,C   7,C   6,C   4)   -179.0276         0.024201   
    176. D(H  29,C   7,C   6,C   2)     -0.4342         0.024201   
    177. D(C   8,C   7,C   6,C   4)     -2.0267         0.024201   
    178. D(C   8,C   7,C   6,C   2)    176.5667         0.024201   
    179. D(C  10,C   8,C   7,C   6)      6.8082         0.029705   
    180. D(H  30,C   8,C   7,H  29)      2.2224         0.029705   
    181. D(H  30,C   8,C   7,C   6)   -174.7476         0.029705   
    182. D(C  10,C   8,C   7,H  29)   -176.2218         0.029705   
    183. D(N  11,C   9,C   4,C   6)   -164.4570         0.019912   
    184. D(N  11,C   9,C   4,C   3)     19.0766         0.019912   
    185. D(C  10,C   9,C   4,C   6)     16.6498         0.019912   
    186. D(C  10,C   9,C   4,C   3)   -159.8166         0.019912   
    187. D(C  14,C  10,C   9,N  11)    -13.4833         0.025381   
    188. D(C  14,C  10,C   9,C   4)    165.4512         0.025381   
    189. D(C   8,C  10,C   9,N  11)    168.9494         0.025381   
    190. D(C   8,C  10,C   9,C   4)    -12.1160         0.025381   
    191. D(C  14,C  10,C   8,H  30)      4.2873         0.021188   
    192. D(C  14,C  10,C   8,C   7)   -177.2434         0.021188   
    193. D(C   9,C  10,C   8,H  30)   -178.1517         0.021188   
    194. D(C   9,C  10,C   8,C   7)      0.3176         0.021188   
    195. D(P  34,N  11,C   9,C  10)   -124.5276         0.019190   
    196. D(P  34,N  11,C   9,C   4)     56.5612         0.019190   
    197. D(C  12,N  11,C   9,C  10)     24.3129         0.019190   
    198. D(C  12,N  11,C   9,C   4)   -154.5983         0.019190   
    199. D(H  31,C  12,N  11,P  34)    -43.6858         0.022546   
    200. D(H  31,C  12,N  11,C   9)    165.8440         0.022546   
    201. D(C  13,C  12,N  11,P  34)    132.2317         0.022546   
    202. D(C  13,C  12,N  11,C   9)    -18.2385         0.022546   
    203. D(H  32,C  13,C  12,H  31)     -2.3797         0.031964   
    204. D(H  32,C  13,C  12,N  11)   -177.9998         0.031964   
    205. D(C  14,C  13,C  12,H  31)    176.0230         0.031964   
    206. D(C  14,C  13,C  12,N  11)      0.4029         0.031964   
    207. D(C  10,C  14,C  13,C  12)     11.1157         0.026526   
    208. D(H  33,C  14,C  10,C   9)    179.7380         0.021023   
    209. D(H  33,C  14,C  10,C   8)     -2.7489         0.021023   
    210. D(C  13,C  14,C  10,C   9)     -4.3674         0.021023   
    211. D(C  13,C  14,C  10,C   8)    173.1457         0.021023   
    212. D(H  33,C  14,C  13,H  32)      5.2797         0.026526   
    213. D(H  33,C  14,C  13,C  12)   -173.0794         0.026526   
    214. D(C  10,C  14,C  13,H  32)   -170.5252         0.026526   
    215. D(N  17,C  15,O   5,C   3)    175.7412         0.020212   
    216. D(O  16,C  15,O   5,C   3)     -3.3257         0.020212   
    217. D(C  19,N  17,C  15,O  16)      2.5371         0.037035   
    218. D(C  19,N  17,C  15,O   5)   -176.4657         0.037035   
    219. D(C  18,N  17,C  15,O  16)    171.5352         0.037035   
    220. D(C  18,N  17,C  15,O   5)     -7.4676         0.037035   
    221. D(H  25,C  18,N  17,C  15)   -107.0381         0.015863   
    222. D(H  24,C  18,N  17,C  19)   -176.4782         0.015863   
    223. D(H  24,C  18,N  17,C  15)     14.2773         0.015863   
    224. D(H  23,C  18,N  17,C  19)    -56.3860         0.015863   
    225. D(H  23,C  18,N  17,C  15)    134.3695         0.015863   
    226. D(H  22,C  19,N  17,C  15)   -140.5853         0.015945   
    227. D(H  21,C  19,N  17,C  18)    169.4900         0.015945   
    228. D(H  21,C  19,N  17,C  15)    -20.4782         0.015945   
    229. D(H  20,C  19,N  17,C  18)    -69.8255         0.015945   
    230. D(H  20,C  19,N  17,C  15)    100.2062         0.015945   
    231. D(O  37,P  34,N  11,C   9)    103.3806         0.006072   
    232. D(O  36,P  34,N  11,C  12)     60.2637         0.006072   
    233. D(O  36,P  34,N  11,C   9)   -150.5461         0.006072   
    234. D(O  35,P  34,N  11,C  12)   -172.8408         0.006072   
    235. D(O  35,P  34,N  11,C   9)    -23.6507         0.006072   
    236. D(C  38,O  36,P  34,O  37)    -59.0809         0.015887   
    237. D(C  38,O  36,P  34,O  35)     69.7205         0.015887   
    238. D(C  38,O  36,P  34,N  11)   -168.4434         0.015887   
    239. D(C  39,O  37,P  34,O  36)    154.6587         0.014742   
    240. D(C  39,O  37,P  34,O  35)     23.2513         0.014742   
    241. D(C  39,O  37,P  34,N  11)   -102.0459         0.014742   
    242. D(H  42,C  38,O  36,P  34)    -84.6699         0.013695   
    243. D(H  41,C  38,O  36,P  34)     33.2367         0.013695   
    244. D(C  40,C  38,O  36,P  34)    154.4758         0.013695   
    245. D(H  48,C  39,O  37,P  34)   -128.2356         0.014052   
    246. D(H  47,C  39,O  37,P  34)    -11.8986         0.014052   
    247. D(C  46,C  39,O  37,P  34)    111.4215         0.014052   
    248. D(H  44,C  40,C  38,H  42)     60.7932         0.012937   
    249. D(H  44,C  40,C  38,H  41)    -62.0064         0.012937   
    250. D(H  44,C  40,C  38,O  36)    178.4609         0.012937   
    251. D(H  43,C  40,C  38,H  42)   -179.9380         0.012937   
    252. D(H  43,C  40,C  38,H  41)     57.2624         0.012937   
    253. D(H  43,C  40,C  38,O  36)    -62.2703         0.012937   
    254. D(H  50,C  46,C  39,H  48)    179.5242         0.012769   
    255. D(H  50,C  46,C  39,H  47)     57.0754         0.012769   
    256. D(H  50,C  46,C  39,O  37)    -64.2592         0.012769   
    257. D(H  49,C  46,C  39,H  48)    -58.9524         0.012769   
    258. D(H  49,C  46,C  39,H  47)    178.5988         0.012769   
    259. D(H  49,C  46,C  39,O  37)     57.2642         0.012769   
    -----------------------------------------------------------------

Number of atoms                         .... 52
Number of degrees of freedom            .... 259


         *************************************************************
         *                GEOMETRY OPTIMIZATION CYCLE   1            *
         *************************************************************
---------------------------------
CARTESIAN COORDINATES (ANGSTROEM)
---------------------------------
  C     -4.794207    0.324573    0.452531
  C     -5.400359   -0.529457    1.368722
  C     -4.615806   -1.113879    2.336075
  C     -3.424916    0.633755    0.540090
  C     -2.631238    0.201294    1.625061
  O     -2.948897    1.345089   -0.512654
  C     -3.224706   -0.789066    2.460949
  C     -2.435398   -1.476639    3.397020
  C     -1.083238   -1.223426    3.477180
  C     -1.290792    0.611653    1.906301
  C     -0.480150   -0.174891    2.730299
  N     -0.733900    1.799461    1.351030
  C      0.662798    1.837464    1.219401
  C      1.474918    0.983823    1.915916
  C      0.925621    0.038228    2.777914
  C     -1.893649    0.842125   -1.292190
  O     -1.338661   -0.200162   -1.021901
  N     -1.641808    1.653512   -2.328850
  C     -2.451502    2.807955   -2.710631
  C     -0.624275    1.246250   -3.293637
  H     -1.094229    0.817437   -4.182358
  H      0.035703    0.511697   -2.844966
  H     -0.051654    2.125004   -3.588310
  H     -1.787798    3.647878   -2.915014
  H     -3.136698    3.081745   -1.919277
  H     -3.012515    2.576623   -3.619133
  H     -5.033196   -1.829807    3.031671
  H     -5.346989    0.735243   -0.381496
  H     -6.452833   -0.759791    1.288098
  H     -2.888486   -2.238200    4.017428
  H     -0.458759   -1.811493    4.137544
  H      1.048108    2.624669    0.590086
  H      2.545616    1.080434    1.799747
  H      1.540460   -0.573001    3.421467
  P     -1.499256    3.332006    1.597701
  O     -2.933108    3.197931    1.893551
  O     -1.047683    4.042066    0.269101
  O     -0.652328    4.089667    2.699955
  C     -1.222566    5.487925    0.068134
  C     -1.066065    4.194575    4.103106
  C     -0.190169    5.956986   -0.927063
  H     -1.107572    5.990193    1.027561
  H     -2.237658    5.636681   -0.297006
  H      0.819437    5.799692   -0.545984
  H     -0.329919    7.025136   -1.103618
  H     -0.296530    5.435096   -1.878449
  C     -0.144067    3.387001    4.986034
  H     -2.101237    3.869362    4.186827
  H     -1.010751    5.257423    4.331877
  H      0.891006    3.710681    4.870240
  H     -0.209610    2.322559    4.758390
  H     -0.434802    3.533981    6.028379

----------------------------
CARTESIAN COORDINATES (A.U.)
----------------------------
  NO LB      ZA    FRAG     MASS         X           Y           Z
   0 C     6.0000    0    12.011   -9.059738    0.613353    0.855160
   1 C     6.0000    0    12.011  -10.205199   -1.000529    2.586510
   2 C     6.0000    0    12.011   -8.722609   -2.104926    4.414541
   3 C     6.0000    0    12.011   -6.472154    1.197624    1.020621
   4 C     6.0000    0    12.011   -4.972319    0.380391    3.070920
   5 O     8.0000    0    15.999   -5.572608    2.541850   -0.968776
   6 C     6.0000    0    12.011   -6.093811   -1.491119    4.650520
   7 C     6.0000    0    12.011   -4.602236   -2.790443    6.419438
   8 C     6.0000    0    12.011   -2.047022   -2.311941    6.570918
   9 C     6.0000    0    12.011   -2.439243    1.155856    3.602387
  10 C     6.0000    0    12.011   -0.907351   -0.330495    5.159518
  11 N     7.0000    0    14.007   -1.386871    3.400488    2.553077
  12 C     6.0000    0    12.011    1.252507    3.472304    2.304334
  13 C     6.0000    0    12.011    2.787190    1.859156    3.620556
  14 C     6.0000    0    12.011    1.749171    0.072240    5.249497
  15 C     6.0000    0    12.011   -3.578478    1.591387   -2.441885
  16 O     8.0000    0    15.999   -2.529703   -0.378250   -1.931113
  17 N     7.0000    0    14.007   -3.102567    3.124685   -4.400889
  18 C     6.0000    0    12.011   -4.632667    5.306266   -5.122351
  19 C     6.0000    0    12.011   -1.179708    2.355071   -6.224072
  20 H     1.0000    0     1.008   -2.067794    1.544732   -7.903511
  21 H     1.0000    0     1.008    0.067469    0.966967   -5.376206
  22 H     1.0000    0     1.008   -0.097611    4.015675   -6.780923
  23 H     1.0000    0     1.008   -3.378448    6.893490   -5.508578
  24 H     1.0000    0     1.008   -5.927501    5.823654   -3.626907
  25 H     1.0000    0     1.008   -5.692828    4.869112   -6.839170
  26 H     1.0000    0     1.008   -9.511362   -3.457834    5.729028
  27 H     1.0000    0     1.008  -10.104345    1.389408   -0.720923
  28 H     1.0000    0     1.008  -12.194087   -1.435796    2.434153
  29 H     1.0000    0     1.008   -5.458447   -4.229585    7.591839
  30 H     1.0000    0     1.008   -0.866929   -3.423225    7.818825
  31 H     1.0000    0     1.008    1.980638    4.959905    1.115100
  32 H     1.0000    0     1.008    4.810517    2.041724    3.401028
  33 H     1.0000    0     1.008    2.911048   -1.082815    6.465635
  34 P    15.0000    0    30.974   -2.833183    6.296579    3.019217
  35 O     8.0000    0    15.999   -5.542771    6.043214    3.578293
  36 O     8.0000    0    15.999   -1.979834    7.638398    0.508528
  37 O     8.0000    0    15.999   -1.232721    7.728351    5.102176
  38 C     6.0000    0    12.011   -2.310315   10.370674    0.128754
  39 C     6.0000    0    12.011   -2.014571    7.926599    7.753747
  40 C     6.0000    0    12.011   -0.359368   11.257071   -1.751895
  41 H     1.0000    0     1.008   -2.093008   11.319824    1.941808
  42 H     1.0000    0     1.008   -4.228561   10.651784   -0.561261
  43 H     1.0000    0     1.008    1.548512   10.959830   -1.031760
  44 H     1.0000    0     1.008   -0.623457   13.275583   -2.085535
  45 H     1.0000    0     1.008   -0.560360   10.270842   -3.549754
  46 C     6.0000    0    12.011   -0.272247    6.400505    9.422239
  47 H     1.0000    0     1.008   -3.970763    7.312034    7.911956
  48 H     1.0000    0     1.008   -1.910042    9.935089    8.186061
  49 H     1.0000    0     1.008    1.683758    7.012172    9.203420
  50 H     1.0000    0     1.008   -0.396105    4.389001    8.992054
  51 H     1.0000    0     1.008   -0.821657    6.678256   11.391985

--------------------------------
INTERNAL COORDINATES (ANGSTROEM)
--------------------------------
 C      0   0   0     0.000000000000     0.00000000     0.00000000
 C      1   0   0     1.391471327515     0.00000000     0.00000000
 C      2   1   0     1.375806267602   118.37627731     0.00000000
 C      1   2   3     1.406491138109   121.20007577   357.30848322
 C      4   1   2     1.412129947031   121.84933096   353.83106579
 O      4   1   2     1.356782560393   114.11138218   172.40257081
 C      5   4   1     1.425386629479   115.42552766    12.79096721
 C      7   5   4     1.404276474788   119.80676790   167.33514326
 C      8   7   5     1.377998991672   120.02249840   357.97328738
 C      5   4   1     1.429784997437   126.16829234   189.34680414
 C     10   5   4     1.398128977817   119.87056249   200.18342372
 N     10   5   4     1.424549772416   121.94715827    19.07657005
 C     12  10   5     1.403402275657   116.62796997   205.40167933
 C     13  12  10     1.368712098089   121.72837915   341.76146521
 C     14  13  12     1.392450875429   120.29784763     0.40288042
 C      6   4   1     1.405061291237   120.41782117   238.51344165
 O     16   6   4     1.211375275549   121.89010249   356.67425566
 N     16   6   4     1.340311921145   110.70324885   175.74120321
 C     18  16   6     1.460856007562   125.19666207   352.53242257
 C     18  16   6     1.460154270529   118.23835735   183.53431542
 H     20  18  16     1.092960566677   110.30764262   100.20623401
 H     20  18  16     1.084640495927   109.85225469   339.52176378
 H     20  18  16     1.089465323925   108.66376949   219.41474022
 H     19  18  16     1.089837216652   108.69346430   134.36951520
 H     19  18  16     1.081987661630   111.08944864    14.27733263
 H     19  18  16     1.092531259179   109.54844664   252.96188332
 H      3   2   1     1.081952604464   120.87267059   183.68670551
 H      1   2   3     1.081581817137   121.20701055   174.19535495
 H      2   1   3     1.080396373692   120.40277655   182.82088380
 H      8   7   5     1.081743525459   119.44475586   180.97238586
 H      9   8   7     1.082532671264   120.11359130   185.25240977
 H     13  12  10     1.078977689453   115.45881507   165.84396019
 H     14  13  12     1.081306468677   118.49811261   182.00015056
 H     15  14  13     1.079716270740   121.92270590   186.92055934
 P     12  10   5     1.730696258815   120.65828248    56.56121765
 O     35  12  10     1.470182386301   112.28552256   336.34933486
 O     35  12  10     1.572666485107    98.76721700   209.45385481
 O     35  12  10     1.583130886934   106.64538001   103.38056770
 C     37  35  12     1.470196767044   121.69186982   191.55663381
 C     38  35  12     1.466634292453   123.32795735   257.95409336
 C     39  37  35     1.508733632941   108.33187903   154.47578548
 H     39  37  35     1.089035035192   108.69821912    33.23666618
 H     39  37  35     1.088975709070   106.92124195   275.33005399
 H     41  39  37     1.090535913033   110.98705620   297.72972277
 H     41  39  37     1.091625558551   108.86227333   178.46094322
 H     41  39  37     1.090328958597   111.10043637    59.22917259
 C     40  38  35     1.510569195832   110.41241648   111.42153578
 H     40  38  35     1.088280506940   108.69663579   348.10139553
 H     40  38  35     1.088595340493   104.86601839   231.76436220
 H     47  40  38     1.090666765687   111.01046685    57.26416291
 H     47  40  38     1.090483530589   111.29350975   295.74075164
 H     47  40  38     1.092067854754   108.87107808   176.39491687

---------------------------
INTERNAL COORDINATES (A.U.)
---------------------------
 C      0   0   0     0.000000000000     0.00000000     0.00000000
 C      1   0   0     2.629499732207     0.00000000     0.00000000
 C      2   1   0     2.599897059099   118.37627731     0.00000000
 C      1   2   3     2.657883060813   121.20007577   357.30848322
 C      4   1   2     2.668538865398   121.84933096   353.83106579
 O      4   1   2     2.563947462423   114.11138218   172.40257081
 C      5   4   1     2.693590364669   115.42552766    12.79096721
 C      7   5   4     2.653697953657   119.80676790   167.33514326
 C      8   7   5     2.604040707080   120.02249840   357.97328738
 C      5   4   1     2.701902075545   126.16829234   189.34680414
 C     10   5   4     2.642080867973   119.87056249   200.18342372
 N     10   5   4     2.692008934007   121.94715827    19.07657005
 C     12  10   5     2.652045956714   116.62796997   205.40167933
 C     13  12  10     2.586491021574   121.72837915   341.76146521
 C     14  13  12     2.631350809500   120.29784763     0.40288042
 C      6   4   1     2.655181041812   120.41782117   238.51344165
 O     16   6   4     2.289167516191   121.89010249   356.67425566
 N     16   6   4     2.532822464994   110.70324885   175.74120321
 C     18  16   6     2.760617775386   125.19666207   352.53242257
 C     18  16   6     2.759291684576   118.23835735   183.53431542
 H     20  18  16     2.065396146194   110.30764262   100.20623401
 H     20  18  16     2.049673491063   109.85225469   339.52176378
 H     20  18  16     2.058791094623   108.66376949   219.41474022
 H     19  18  16     2.059493870028   108.69346430   134.36951520
 H     19  18  16     2.044660360762   111.08944864    14.27733263
 H     19  18  16     2.064584872596   109.54844664   252.96188332
 H      3   2   1     2.044594112321   120.87267059   183.68670551
 H      1   2   3     2.043893425819   121.20701055   174.19535495
 H      2   1   3     2.041653262359   120.40277655   182.82088380
 H      8   7   5     2.044199010259   119.44475586   180.97238586
 H      9   8   7     2.045690279712   120.11359130   185.25240977
 H     13  12  10     2.038972337678   115.45881507   165.84396019
 H     14  13  12     2.043373092638   118.49811261   182.00015056
 H     15  14  13     2.040368054038   121.92270590   186.92055934
 P     12  10   5     3.270541950162   120.65828248    56.56121765
 O     35  12  10     2.778242077024   112.28552256   336.34933486
 O     35  12  10     2.971908956848    98.76721700   209.45385481
 O     35  12  10     2.991683810457   106.64538001   103.38056770
 C     37  35  12     2.778269252690   121.69186982   191.55663381
 C     38  35  12     2.771537151354   123.32795735   257.95409336
 C     39  37  35     2.851093375295   108.33187903   154.47578548
 H     39  37  35     2.057977966759   108.69821912    33.23666618
 H     39  37  35     2.057865856635   106.92124195   275.33005399
 H     41  39  37     2.060814214837   110.98705620   297.72972277
 H     41  39  37     2.062873346451   108.86227333   178.46094322
 H     41  39  37     2.060423127632   111.10043637    59.22917259
 C     40  38  35     2.854562086460   110.41241648   111.42153578
 H     40  38  35     2.056552115002   108.69663579   348.10139553
 H     40  38  35     2.057147064194   104.86601839   231.76436220
 H     47  40  38     2.061061490518   111.01046685    57.26416291
 H     47  40  38     2.060715226365   111.29350975   295.74075164
 H     47  40  38     2.063709165144   108.87107808   176.39491687

---------------------
BASIS SET INFORMATION
---------------------
There are 5 groups of distinct atoms

 Group   1 Type C   : 11s6p2d contracted to 5s3p2d pattern {62111/411/11}
 Group   2 Type O   : 11s6p2d contracted to 5s3p2d pattern {62111/411/11}
 Group   3 Type N   : 11s6p2d contracted to 5s3p2d pattern {62111/411/11}
 Group   4 Type H   : 5s1p contracted to 3s1p pattern {311/1}
 Group   5 Type P   : 14s9p3d contracted to 5s5p2d pattern {73211/51111/21}

Atom   0C    basis set group =>   1
Atom   1C    basis set group =>   1
Atom   2C    basis set group =>   1
Atom   3C    basis set group =>   1
Atom   4C    basis set group =>   1
Atom   5O    basis set group =>   2
Atom   6C    basis set group =>   1
Atom   7C    basis set group =>   1
Atom   8C    basis set group =>   1
Atom   9C    basis set group =>   1
Atom  10C    basis set group =>   1
Atom  11N    basis set group =>   3
Atom  12C    basis set group =>   1
Atom  13C    basis set group =>   1
Atom  14C    basis set group =>   1
Atom  15C    basis set group =>   1
Atom  16O    basis set group =>   2
Atom  17N    basis set group =>   3
Atom  18C    basis set group =>   1
Atom  19C    basis set group =>   1
Atom  20H    basis set group =>   4
Atom  21H    basis set group =>   4
Atom  22H    basis set group =>   4
Atom  23H    basis set group =>   4
Atom  24H    basis set group =>   4
Atom  25H    basis set group =>   4
Atom  26H    basis set group =>   4
Atom  27H    basis set group =>   4
Atom  28H    basis set group =>   4
Atom  29H    basis set group =>   4
Atom  30H    basis set group =>   4
Atom  31H    basis set group =>   4
Atom  32H    basis set group =>   4
Atom  33H    basis set group =>   4
Atom  34P    basis set group =>   5
Atom  35O    basis set group =>   2
Atom  36O    basis set group =>   2
Atom  37O    basis set group =>   2
Atom  38C    basis set group =>   1
Atom  39C    basis set group =>   1
Atom  40C    basis set group =>   1
Atom  41H    basis set group =>   4
Atom  42H    basis set group =>   4
Atom  43H    basis set group =>   4
Atom  44H    basis set group =>   4
Atom  45H    basis set group =>   4
Atom  46C    basis set group =>   1
Atom  47H    basis set group =>   4
Atom  48H    basis set group =>   4
Atom  49H    basis set group =>   4
Atom  50H    basis set group =>   4
Atom  51H    basis set group =>   4
---------------------------------
AUXILIARY/J BASIS SET INFORMATION
---------------------------------
There are 5 groups of distinct atoms

 Group   1 Type C   : 12s5p4d2f1g contracted to 6s4p3d1f1g pattern {711111/2111/211/2/1}
 Group   2 Type O   : 12s5p4d2f1g contracted to 6s4p3d1f1g pattern {711111/2111/211/2/1}
 Group   3 Type N   : 12s5p4d2f1g contracted to 6s4p3d1f1g pattern {711111/2111/211/2/1}
 Group   4 Type H   : 5s2p1d contracted to 3s1p1d pattern {311/2/1}
 Group   5 Type P   : 14s5p5d2f1g contracted to 8s4p3d1f1g pattern {71111111/2111/311/2/1}

Atom   0C    basis set group =>   1
Atom   1C    basis set group =>   1
Atom   2C    basis set group =>   1
Atom   3C    basis set group =>   1
Atom   4C    basis set group =>   1
Atom   5O    basis set group =>   2
Atom   6C    basis set group =>   1
Atom   7C    basis set group =>   1
Atom   8C    basis set group =>   1
Atom   9C    basis set group =>   1
Atom  10C    basis set group =>   1
Atom  11N    basis set group =>   3
Atom  12C    basis set group =>   1
Atom  13C    basis set group =>   1
Atom  14C    basis set group =>   1
Atom  15C    basis set group =>   1
Atom  16O    basis set group =>   2
Atom  17N    basis set group =>   3
Atom  18C    basis set group =>   1
Atom  19C    basis set group =>   1
Atom  20H    basis set group =>   4
Atom  21H    basis set group =>   4
Atom  22H    basis set group =>   4
Atom  23H    basis set group =>   4
Atom  24H    basis set group =>   4
Atom  25H    basis set group =>   4
Atom  26H    basis set group =>   4
Atom  27H    basis set group =>   4
Atom  28H    basis set group =>   4
Atom  29H    basis set group =>   4
Atom  30H    basis set group =>   4
Atom  31H    basis set group =>   4
Atom  32H    basis set group =>   4
Atom  33H    basis set group =>   4
Atom  34P    basis set group =>   5
Atom  35O    basis set group =>   2
Atom  36O    basis set group =>   2
Atom  37O    basis set group =>   2
Atom  38C    basis set group =>   1
Atom  39C    basis set group =>   1
Atom  40C    basis set group =>   1
Atom  41H    basis set group =>   4
Atom  42H    basis set group =>   4
Atom  43H    basis set group =>   4
Atom  44H    basis set group =>   4
Atom  45H    basis set group =>   4
Atom  46C    basis set group =>   1
Atom  47H    basis set group =>   4
Atom  48H    basis set group =>   4
Atom  49H    basis set group =>   4
Atom  50H    basis set group =>   4
Atom  51H    basis set group =>   4
------------------------------------------------------------------------------
                             ORCA STARTUP CALCULATIONS
                           -- RI-GTO INTEGRALS CHOSEN --
------------------------------------------------------------------------------
------------------------------------------------------------------------------
                   ___                                                        
                  /   \      - P O W E R E D   B Y -                         
                 /     \                                                     
                 |  |  |   _    _      __       _____    __    __             
                 |  |  |  | |  | |    /  \     |  _  \  |  |  /  |          
                  \  \/   | |  | |   /    \    | | | |  |  | /  /          
                 / \  \   | |__| |  /  /\  \   | |_| |  |  |/  /          
                |  |  |   |  __  | /  /__\  \  |    /   |      \           
                |  |  |   | |  | | |   __   |  |    \   |  |\   \          
                \     /   | |  | | |  |  |  |  | |\  \  |  | \   \       
                 \___/    |_|  |_| |__|  |__|  |_| \__\ |__|  \__/        
                                                                              
                      - O R C A' S   B I G   F R I E N D -                    
                                      &                                       
                       - I N T E G R A L  F E E D E R -                       
                                                                              
 v1 FN, 2020, v2 2021, v3 2022-2024                                           
------------------------------------------------------------------------------


----------------------
SHARK INTEGRAL PACKAGE
----------------------

Number of atoms                             ...     52
Number of basis functions                   ...    822
Number of shells                            ...    378
Maximum angular momentum                    ...      2
Integral batch strategy                     ... SHARK/LIBINT Hybrid
RI-J (if used) integral strategy            ... SPLIT-RIJ (Revised 2003 algorithm where possible)
Printlevel                                  ...      1
Contraction scheme used                     ... SEGMENTED contraction
Prescreening option                         ... SCHWARTZ
   Thresh                                   ... 2.500e-11
   Tcut                                     ... 2.500e-12
   Tpresel                                  ... 2.500e-12 
Coulomb Range Separation                    ... NOT USED
Exchange Range Separation                   ... NOT USED
Multipole approximations                    ... NOT USED
Finite Nucleus Model                        ... NOT USED
CABS basis                                  ... NOT available
Auxiliary Coulomb fitting basis             ... AVAILABLE
   # of basis functions in Aux-J            ...   1638
   # of shells in Aux-J                     ...    542
   Maximum angular momentum in Aux-J        ...      4
Auxiliary J/K fitting basis                 ... NOT available
Auxiliary Correlation fitting basis         ... NOT available
Auxiliary 'external' fitting basis          ... NOT available

Checking pre-screening integrals            ... done (  0.0 sec) Dimension = 378
Check shell pair data                       ... done (  0.0 sec)
Shell pair information
Shell pair cut-off parameter TPreSel        ...   2.5e-12
Total number of shell pairs                 ...     71631
Shell pairs after pre-screening             ...     50052
Total number of primitive shell pairs       ...    234288
Primitive shell pairs kept                  ...    103688
          la=0 lb=0:  14984 shell pairs
          la=1 lb=0:  16705 shell pairs
          la=1 lb=1:   4688 shell pairs
          la=2 lb=0:   7990 shell pairs
          la=2 lb=1:   4539 shell pairs
          la=2 lb=2:   1146 shell pairs

Calculating one electron integrals          ... done (  0.2 sec)
Calculating RI/J V-Matrix + Cholesky decomp.... done (  0.4 sec)
Calculating Nuclear repulsion               ... done (  0.0 sec) ENN=   3142.733321080124 Eh

Diagonalization of the overlap matrix:
Smallest eigenvalue                        ... 4.744e-06
Time for diagonalization                   ...    0.070 sec
Threshold for overlap eigenvalues          ... 1.000e-07
Number of eigenvalues below threshold      ... 0
Time for construction of square roots      ...    0.084 sec
Total time needed                          ...    0.162 sec

-------------------
DFT GRID GENERATION
-------------------

General Integration Accuracy     IntAcc      ... 4.388
Radial Grid Type                 RadialGrid  ... OptM3 with GC (2021)
Angular Grid (max. ang.)         AngularGrid ... 4 (Lebedev-302)
Angular grid pruning method      GridPruning ... 4 (adaptive)
Weight generation scheme         WeightScheme... mBecke (2022)
Basis function cutoff            BFCut       ... 1.0000e-11
Integration weight cutoff        WCut        ... 1.0000e-14
Partially contracted basis set               ... off
Rotationally invariant grid construction     ... off
Angular grids for H and He will be reduced by one unit

Total number of grid points                  ...   244353
Total number of batches                      ...     3842
Average number of points per batch           ...       63
Average number of grid points per atom       ...     4699

--------------------
COSX GRID GENERATION
--------------------

GRIDX 1
-------
General Integration Accuracy     IntAcc      ... 3.816
Radial Grid Type                 RadialGrid  ... OptM3 with GC (2021)
Angular Grid (max. ang.)         AngularGrid ... 1 (Lebedev-50)
Angular grid pruning method      GridPruning ... 4 (adaptive)
Weight generation scheme         WeightScheme... mBecke (2022)
Basis function cutoff            BFCut       ... 1.0000e-11
Integration weight cutoff        WCut        ... 1.0000e-14
Partially contracted basis set               ... on
Rotationally invariant grid construction     ... off
Angular grids for H and He will be reduced by one unit

Total number of grid points                  ...    31972
Total number of batches                      ...      277
Average number of points per batch           ...      115
Average number of grid points per atom       ...      615
UseSFitting                                  ... on

GRIDX 2
-------
General Integration Accuracy     IntAcc      ... 4.020
Radial Grid Type                 RadialGrid  ... OptM3 with GC (2021)
Angular Grid (max. ang.)         AngularGrid ... 2 (Lebedev-110)
Angular grid pruning method      GridPruning ... 4 (adaptive)
Weight generation scheme         WeightScheme... mBecke (2022)
Basis function cutoff            BFCut       ... 1.0000e-11
Integration weight cutoff        WCut        ... 1.0000e-14
Partially contracted basis set               ... on
Rotationally invariant grid construction     ... off
Angular grids for H and He will be reduced by one unit

Total number of grid points                  ...    66416
Total number of batches                      ...      544
Average number of points per batch           ...      122
Average number of grid points per atom       ...     1277
UseSFitting                                  ... on

GRIDX 3
-------
General Integration Accuracy     IntAcc      ... 4.338
Radial Grid Type                 RadialGrid  ... OptM3 with GC (2021)
Angular Grid (max. ang.)         AngularGrid ... 3 (Lebedev-194)
Angular grid pruning method      GridPruning ... 4 (adaptive)
Weight generation scheme         WeightScheme... mBecke (2022)
Basis function cutoff            BFCut       ... 1.0000e-11
Integration weight cutoff        WCut        ... 1.0000e-14
Partially contracted basis set               ... on
Rotationally invariant grid construction     ... off
Angular grids for H and He will be reduced by one unit

Total number of grid points                  ...   145105
Total number of batches                      ...     1158
Average number of points per batch           ...      125
Average number of grid points per atom       ...     2790
UseSFitting                                  ... on
Initializing property integral containers    ... done (  0.0 sec)

SHARK setup successfully completed in   8.4 seconds

Maximum memory used throughout the entire STARTUP-calculation: 175.4 MB
-------------------------------------------------------------------------------
                                 ORCA GUESS
                   Start orbitals & Density for SCF / CASSCF
-------------------------------------------------------------------------------

------------
SCF SETTINGS
------------
Hamiltonian:
 Density Functional     Method          .... DFT(GTOs)
 Exchange Functional    Exchange        .... B88
   X-Alpha parameter    XAlpha          ....  0.666667
   Becke's b parameter  XBeta           ....  0.004200
 Correlation Functional Correlation     .... LYP
 LDA part of GGA corr.  LDAOpt          .... VWN-3
 Gradients option       PostSCFGGA      .... off
 Hybrid DFT is turned on
   Fraction HF Exchange ScalHFX         ....  0.200000
   Scaling of DF-GGA-X  ScalDFX         ....  0.720000
   Scaling of DF-GGA-C  ScalDFC         ....  0.810000
   Scaling of DF-LDA-C  ScalLDAC        ....  1.000000
   Perturbative correction              ....  0.000000
   NL short-range parameter             ....  4.800000
 RI-approximation to the Coulomb term is turned on
   Number of AuxJ basis functions       .... 1638
   RIJ-COSX (HFX calculated with COS-X)).... on


General Settings:
 Integral files         IntName         .... hbq-dcp-es
 Hartree-Fock type      HFTyp           .... RHF
 Total Charge           Charge          ....    1
 Multiplicity           Mult            ....    1
 Number of Electrons    NEL             ....  212
 Basis Dimension        Dim             ....  822
 Nuclear Repulsion      ENuc            ....   3142.7333210801 Eh

Convergence Acceleration:
 AO-DIIS                CNVDIIS         .... on
   Start iteration      DIISMaxIt       ....    12
   Startup error        DIISStart       ....  0.200000
   # of expansion vecs  DIISMaxEq       ....     5
   Bias factor          DIISBfac        ....   1.050
   Max. coefficient     DIISMaxC        ....  10.000
 MO-DIIS                CNVKDIIS        .... off
 Trust-Rad. Augm. Hess. CNVTRAH         .... auto
   Auto Start mean grad. ratio tolernc. ....  1.125000
   Auto Start start iteration           ....    50
   Auto Start num. interpolation iter.  ....    10
   Max. Number of Micro iterations      ....    24
   Max. Number of Macro iterations      .... Maxiter - #DIIS iter
   Number of Davidson start vectors     ....     2
   Converg. threshold    (grad. norm)   ....   1.000e-05
   Grad. Scal. Fac. for Micro threshold ....   0.100
   Minimum threshold for Micro iter.    ....   1.000e-02
   NR start threshold (gradient norm)   ....   1.000e-04
   Initial trust radius                 ....   0.400
   Minimum AH scaling param. (alpha)    ....   1.000
   Maximum AH scaling param. (alpha)    .... 1000.000
   Quad. conv. algorithm                .... NR
   White noise on init. David. guess    .... on
   Maximum white noise                  ....   0.010
   Pseudo random numbers                .... off
   Inactive MOs                         .... canonical
   Orbital update algorithm             .... Taylor
   Preconditioner                       .... Diag
   Full preconditioner red. dimension   ....   250
 SOSCF                  CNVSOSCF        .... on
   Start iteration      SOSCFMaxIt      ....   150
   Startup grad/error   SOSCFStart      ....  0.003300
   Hessian update       SOSCFHessUp     .... L-BFGS
 Level Shifting         CNVShift        .... on
   Level shift para.    LevelShift      ....    0.2500
   Turn off err/grad.   ShiftErr        ....    0.0010
 Zerner damping         CNVZerner       .... off
 Static damping         CNVDamp         .... on
   Fraction old density DampFac         ....    0.7000
   Max. Damping (<1)    DampMax         ....    0.9800
   Min. Damping (>=0)   DampMin         ....    0.0000
   Turn off err/grad.   DampErr         ....    0.1000

SCF Procedure:
 Maximum # iterations   MaxIter         ....   125
 SCF integral mode      SCFMode         .... Direct
   Integral package                     .... SHARK and LIBINT hybrid scheme
 Reset frequency        DirectResetFreq ....    20
 Integral Threshold     Thresh          ....  2.500e-11 Eh
 Primitive CutOff       TCut            ....  2.500e-12 Eh

Convergence Tolerance:
 Convergence Check Mode ConvCheckMode   .... Total+1el-Energy
 Convergence forced     ConvForced      .... 1
 Energy Change          TolE            ....  1.000e-08 Eh
 1-El. energy change                    ....  1.000e-05 Eh
 Orbital Gradient       TolG            ....  1.000e-05
 Orbital Rotation angle TolX            ....  1.000e-05
 DIIS Error             TolErr          ....  5.000e-07

------------------------------
INITIAL GUESS: MODEL POTENTIAL
------------------------------
Loading Hartree-Fock densities                     ... done
Calculating cut-offs                               ... done
Initializing the effective Hamiltonian             ... done
Setting up the integral package (SHARK)            ... done
Starting the Coulomb interaction                   ... done (   2.3 sec)
Making the grid                                    ... done (   0.7 sec)
Mapping shells                                     ... done
Starting the XC term evaluation                    ... done (   1.0 sec)
  promolecular density results
     # of electrons  =    212.981740945
     EX              =   -186.944230060
     EC              =     -7.403349999
     EX+EC           =   -194.347580060
Transforming the Hamiltonian                       ... done (   0.0 sec)
Diagonalizing the Hamiltonian                      ... done (   0.1 sec)
Back transforming the eigenvectors                 ... done (   0.1 sec)
Now organizing SCF variables                       ... done
                      ------------------
                      INITIAL GUESS DONE (   4.3 sec)
                      ------------------
             **** ENERGY FILE WAS UPDATED (hbq-dcp-es.en.tmp) ****
Finished Guess after   4.8 sec
Maximum memory used throughout the entire GUESS-calculation: 127.7 MB

-------------------------------------------------------------------------------------------
                                      ORCA LEAN-SCF
                              memory conserving SCF solver
-------------------------------------------------------------------------------------------

--------------------
CPCM SOLVATION MODEL
--------------------
CPCM parameters:
  Epsilon                                         ...      80.1510
  Refrac                                          ...       1.3328
  Rsolv                                           ...       1.3000
  Surface type                                    ... GAUSSIAN VDW
  Discretization scheme                           ... Constant charge density
    Threshold for H atoms                         ...       5.0000 (charges/Ang^2)
    Threshold for non-H atoms                     ...       5.0000 (charges/Ang^2)
  Epsilon function type                           ...         CPCM
Solvent:                                          ... WATER
Radii:
  Scheme                                          ... Element-dependent radii
  Radius for C  used is    3.8550 Bohr (=   2.0400 Ang.)
  Radius for O  used is    3.4469 Bohr (=   1.8240 Ang.)
  Radius for N  used is    3.5149 Bohr (=   1.8600 Ang.)
  Radius for H  used is    2.4944 Bohr (=   1.3200 Ang.)
  Radius for P  used is    4.0818 Bohr (=   2.1600 Ang.)
Calculating surface                               ...        done! (  0.0s)
Cavity surface points                             ...         4391
Cavity Volume                                     ...    3099.5402
Cavity Surface-area                               ...    1536.3623
Calculating surface distance matrix               ...        done! (  0.1s)
Performing Cholesky decomposition & store         ...        done! (  1.8s)
Overall time for CPCM initialization              ...                 1.9s

----------------------------------------D-I-I-S--------------------------------------------
Iteration    Energy (Eh)           Delta-E    RMSDP     MaxDP     DIISErr   Damp  Time(sec)
-------------------------------------------------------------------------------------------
               ***  Starting incremental Fock matrix formation  ***
    1    -1603.1779041624695310     0.00e+00  1.46e-03  1.40e-01  3.77e-01  0.700  66.5
Warning: op=0 Small HOMO/LUMO gap (   0.074) - skipping pre-diagonalization
         Will do a full diagonalization
    2    -1603.5660401435325184    -3.88e-01  1.04e-03  4.96e-02  1.31e-01  0.700  33.6
                               ***Turning on AO-DIIS***
    3    -1603.7109930131491637    -1.45e-01  5.29e-04  3.81e-02  3.75e-02  0.700  32.6
    4    -1603.7990112926145230    -8.80e-02  9.94e-04  1.14e-01  1.85e-02  0.000  30.6
    5    -1603.9945926522223090    -1.96e-01  2.12e-04  1.08e-02  6.03e-03  0.000  31.7
                              *** Initializing SOSCF ***
---------------------------------------S-O-S-C-F--------------------------------------
Iteration    Energy (Eh)           Delta-E    RMSDP     MaxDP     MaxGrad    Time(sec)
--------------------------------------------------------------------------------------
    6    -1603.9955856530723395    -9.93e-04  6.37e-05  5.90e-03  1.57e-03    27.7
               *** Restarting incremental Fock matrix formation ***
    7    -1603.9956764151302195    -9.08e-05  8.19e-05  7.01e-03  4.65e-04    63.1
    8    -1603.9956542582094698     2.22e-05  2.75e-05  1.33e-03  9.53e-04    42.7
    9    -1603.9957011620290359    -4.69e-05  8.77e-06  5.01e-04  3.60e-05    39.7
   10    -1603.9957010395946782     1.22e-07  2.32e-06  2.41e-04  5.24e-05    34.0
   11    -1603.9957015138397765    -4.74e-07  4.11e-06  4.57e-04  8.72e-06    28.1
   12    -1603.9957014918609275     2.20e-08  2.21e-06  2.39e-04  1.21e-05    26.7
   13    -1603.9957014996307407    -7.77e-09  2.65e-06  2.82e-04  4.40e-06    23.6
                 **** Energy Check signals convergence ****

               *****************************************************
               *                     SUCCESS                       *
               *           SCF CONVERGED AFTER  13 CYCLES          *
               *****************************************************

Recomputing exchange energy using gridx3       ... done (  103.067 sec)
Old exchange energy                            :    -37.861836653 Eh
New exchange energy                            :    -37.861851181 Eh
Exchange energy change after final integration :     -0.000014529 Eh
Total energy after final integration           :  -1603.995716028 Eh
             **** ENERGY FILE WAS UPDATED (hbq-dcp-es.en.tmp) ****

----------------
TOTAL SCF ENERGY
----------------

Total Energy       :      -1603.99571602817718 Eh          -43646.94240 eV

Components:
Nuclear Repulsion  :       3142.73332108012437 Eh           85518.12132 eV
Electronic Energy  :      -4746.64545531883232 Eh         -129162.78935 eV
One Electron Energy:      -8419.86195012964527 Eh         -229116.09170 eV
Two Electron Energy:       3673.21649481081340 Eh           99953.30235 eV
CPCM Dielectric    :         -0.08356726092391 Eh              -2.27398 eV

Virial components:
Potential Energy   :      -3200.96548695326601 Eh          -87102.69912 eV
Kinetic Energy     :       1596.96977092508882 Eh           43455.75671 eV
Virial Ratio       :          2.00439954796328

DFT components:
N(Alpha)           :      106.000100934615 electrons
N(Beta)            :      106.000100934615 electrons
N(Total)           :      212.000201869230 electrons
E(X)               :     -150.492054166009 Eh       
E(C)               :       -9.462171467171 Eh       
E(XC)              :     -159.954225633180 Eh       

CPCM Solvation Model Properties:
Surface-charge          :         -1.03442469428236
Corrected charge        :         -1.00000000000000
Outlying charge corr.   :          0.00005874623442 Eh               0.00160 eV
Free-energy (cav+disp)  :  This term is not implemented in the current solvation scheme

---------------
SCF CONVERGENCE
---------------

  Last Energy change         ...    7.7698e-09  Tolerance :   1.0000e-08
  Last MAX-Density change    ...    2.8234e-04  Tolerance :   1.0000e-07
  Last RMS-Density change    ...    2.6511e-06  Tolerance :   5.0000e-09
  Last DIIS Error            ...    1.5664e-03  Tolerance :   5.0000e-07
  Last Orbital Gradient      ...    4.3996e-06  Tolerance :   1.0000e-05
  Last Orbital Rotation      ...    2.1853e-05  Tolerance :   1.0000e-05


----------------
ORBITAL ENERGIES
----------------

  NO   OCC          E(Eh)            E(eV) 
   0   2.0000     -77.217988     -2101.2083 
   1   2.0000     -19.189508      -522.1731 
   2   2.0000     -19.181548      -521.9565 
   3   2.0000     -19.181367      -521.9515 
   4   2.0000     -19.117309      -520.2084 
   5   2.0000     -19.117094      -520.2026 
   6   2.0000     -14.429385      -392.6435 
   7   2.0000     -14.365161      -390.8959 
   8   2.0000     -10.335457      -281.2421 
   9   2.0000     -10.282540      -279.8021 
  10   2.0000     -10.278295      -279.6866 
  11   2.0000     -10.267824      -279.4017 
  12   2.0000     -10.248098      -278.8649 
  13   2.0000     -10.242927      -278.7242 
  14   2.0000     -10.240201      -278.6500 
  15   2.0000     -10.233555      -278.4692 
  16   2.0000     -10.224123      -278.2125 
  17   2.0000     -10.222015      -278.1552 
  18   2.0000     -10.218042      -278.0471 
  19   2.0000     -10.204436      -277.6768 
  20   2.0000     -10.202775      -277.6316 
  21   2.0000     -10.202605      -277.6270 
  22   2.0000     -10.201967      -277.6096 
  23   2.0000     -10.198110      -277.5047 
  24   2.0000     -10.194530      -277.4073 
  25   2.0000     -10.194369      -277.4029 
  26   2.0000     -10.168820      -276.7077 
  27   2.0000     -10.167698      -276.6771 
  28   2.0000      -6.685132      -181.9117 
  29   2.0000      -4.848043      -131.9220 
  30   2.0000      -4.847215      -131.8994 
  31   2.0000      -4.845767      -131.8600 
  32   2.0000      -1.131575       -30.7917 
  33   2.0000      -1.112431       -30.2708 
  34   2.0000      -1.056449       -28.7474 
  35   2.0000      -1.045605       -28.4523 
  36   2.0000      -1.022291       -27.8179 
  37   2.0000      -0.995807       -27.0973 
  38   2.0000      -0.960321       -26.1317 
  39   2.0000      -0.908670       -24.7262 
  40   2.0000      -0.872892       -23.7526 
  41   2.0000      -0.844829       -22.9890 
  42   2.0000      -0.810835       -22.0640 
  43   2.0000      -0.788643       -21.4601 
  44   2.0000      -0.781461       -21.2646 
  45   2.0000      -0.772173       -21.0119 
  46   2.0000      -0.763401       -20.7732 
  47   2.0000      -0.728968       -19.8362 
  48   2.0000      -0.722081       -19.6488 
  49   2.0000      -0.708638       -19.2830 
  50   2.0000      -0.685081       -18.6420 
  51   2.0000      -0.672815       -18.3082 
  52   2.0000      -0.657186       -17.8830 
  53   2.0000      -0.644409       -17.5353 
  54   2.0000      -0.641242       -17.4491 
  55   2.0000      -0.608666       -16.5627 
  56   2.0000      -0.597822       -16.2676 
  57   2.0000      -0.575346       -15.6560 
  58   2.0000      -0.562829       -15.3153 
  59   2.0000      -0.549280       -14.9467 
  60   2.0000      -0.548907       -14.9365 
  61   2.0000      -0.544791       -14.8245 
  62   2.0000      -0.541446       -14.7335 
  63   2.0000      -0.514077       -13.9888 
  64   2.0000      -0.513212       -13.9652 
  65   2.0000      -0.508675       -13.8417 
  66   2.0000      -0.501235       -13.6393 
  67   2.0000      -0.495322       -13.4784 
  68   2.0000      -0.487173       -13.2567 
  69   2.0000      -0.481753       -13.1092 
  70   2.0000      -0.472405       -12.8548 
  71   2.0000      -0.468622       -12.7518 
[...]
      px      :     2.720286
      py      :     2.673037
      dz2     :     0.289095  d :     1.589522
      dxz     :     0.376195
      dyz     :     0.271583
      dx2y2   :     0.301547
      dxy     :     0.351101
 35 O s       :     3.579963  s :     3.579963
      pz      :     1.631462  p :     4.813114
      px      :     1.567289
      py      :     1.614363
      dz2     :     0.006635  d :     0.047439
      dxz     :     0.011261
      dyz     :     0.000741
      dx2y2   :     0.018644
      dxy     :     0.010157
 36 O s       :     3.383821  s :     3.383821
      pz      :     1.571357  p :     4.650401
      px      :     1.676029
      py      :     1.403014
      dz2     :     0.016782  d :     0.073346
      dxz     :     0.009217
      dyz     :     0.020435
      dx2y2   :     0.012888
      dxy     :     0.014024
 37 O s       :     3.386677  s :     3.386677
      pz      :     1.362267  p :     4.654628
      px      :     1.648972
      py      :     1.643389
      dz2     :     0.016314  d :     0.073531
      dxz     :     0.025164
      dyz     :     0.019083
      dx2y2   :     0.005373
      dxy     :     0.007597
 38 C s       :     2.821538  s :     2.821538
      pz      :     1.080758  p :     2.929735
      px      :     1.084400
      py      :     0.764577
      dz2     :     0.090811  d :     0.476863
      dxz     :     0.049532
      dyz     :     0.108553
      dx2y2   :     0.136461
      dxy     :     0.091506
 39 C s       :     2.821162  s :     2.821162
      pz      :     0.786082  p :     2.930135
      px      :     1.063405
      py      :     1.080648
      dz2     :     0.148783  d :     0.478048
      dxz     :     0.101969
      dyz     :     0.095991
      dx2y2   :     0.096202
      dxy     :     0.035103
 40 C s       :     2.839119  s :     2.839119
      pz      :     1.063569  p :     3.200875
      px      :     1.064011
      py      :     1.073295
      dz2     :     0.066895  d :     0.235664
      dxz     :     0.046016
      dyz     :     0.035162
      dx2y2   :     0.069435
      dxy     :     0.018156
 41 H s       :     0.818622  s :     0.818622
      pz      :     0.033348  p :     0.060561
      px      :     0.013052
      py      :     0.014161
 42 H s       :     0.818152  s :     0.818152
      pz      :     0.016072  p :     0.059252
      px      :     0.035640
      py      :     0.007539
 43 H s       :     0.823436  s :     0.823436
      pz      :     0.015117  p :     0.060621
      px      :     0.032517
      py      :     0.012987
 44 H s       :     0.814246  s :     0.814246
      pz      :     0.012845  p :     0.060412
      px      :     0.012531
      py      :     0.035036
 45 H s       :     0.824766  s :     0.824766
      pz      :     0.030398  p :     0.060862
      px      :     0.012360
      py      :     0.018103
 46 C s       :     2.839616  s :     2.839616
      pz      :     1.062172  p :     3.202170
      px      :     1.069149
      py      :     1.070849
      dz2     :     0.064021  d :     0.236151
      dxz     :     0.032934
      dyz     :     0.025339
      dx2y2   :     0.082250
      dxy     :     0.031606
 47 H s       :     0.821242  s :     0.821242
      pz      :     0.007796  p :     0.061134
      px      :     0.037971
      py      :     0.015367
 48 H s       :     0.818386  s :     0.818386
      pz      :     0.008430  p :     0.058595
      px      :     0.012487
      py      :     0.037678
 49 H s       :     0.823924  s :     0.823924
      pz      :     0.012541  p :     0.060602
      px      :     0.033584
      py      :     0.014477
 50 H s       :     0.823760  s :     0.823760
      pz      :     0.013352  p :     0.061035
      px      :     0.012332
      py      :     0.035351
 51 H s       :     0.815338  s :     0.815338
      pz      :     0.033547  p :     0.060353
      px      :     0.013985
      py      :     0.012821


                      *****************************
                      * MAYER POPULATION ANALYSIS *
                      *****************************

  NA   - Mulliken gross atomic population
  ZA   - Total nuclear charge
  QA   - Mulliken gross atomic charge
  VA   - Mayer's total valence
  BVA  - Mayer's bonded valence
  FA   - Mayer's free valence

  ATOM       NA         ZA         QA         VA         BVA        FA
  0 C      6.1264     6.0000    -0.1264     3.9678     3.7945     0.1733
  1 C      6.0932     6.0000    -0.0932     3.8510     3.8160     0.0349
  2 C      6.1215     6.0000    -0.1215     3.7586     3.5599     0.1987
  3 C      5.6379     6.0000     0.3621     3.6902     3.5847     0.1056
  4 C      5.8303     6.0000     0.1697     3.8752     3.8627     0.0125
  5 O      8.4751     8.0000    -0.4751     2.0815     2.0269     0.0546
  6 C      5.8336     6.0000     0.1664     3.9810     3.9212     0.0598
  7 C      6.1450     6.0000    -0.1450     3.7411     3.6519     0.0893
  8 C      6.1854     6.0000    -0.1854     3.7676     3.6493     0.1183
  9 C      6.0071     6.0000    -0.0071     3.8810     3.7611     0.1200
 10 C      5.6704     6.0000     0.3296     3.7949     3.7883     0.0066
 11 N      7.3045     7.0000    -0.3045     3.0850     2.9601     0.1249
 12 C      6.0540     6.0000    -0.0540     4.0442     3.8208     0.2234
 13 C      6.0205     6.0000    -0.0205     3.8325     3.8004     0.0320
 14 C      6.2895     6.0000    -0.2895     3.9154     3.6341     0.2813
 15 C      5.2765     6.0000     0.7235     4.1425     4.1378     0.0048
 16 O      8.5889     8.0000    -0.5889     2.0320     2.0174     0.0146
 17 N      7.2066     7.0000    -0.2066     3.3225     3.2814     0.0411
 18 C      6.2737     6.0000    -0.2737     3.8298     3.8273     0.0026
 19 C      6.2488     6.0000    -0.2488     3.8277     3.8248     0.0029
 20 H      0.8511     1.0000     0.1489     0.9503     0.9471     0.0033
 21 H      0.8475     1.0000     0.1525     0.9746     0.9739     0.0007
 22 H      0.8510     1.0000     0.1490     0.9523     0.9504     0.0019
 23 H      0.8445     1.0000     0.1555     0.9477     0.9446     0.0031
 24 H      0.8388     1.0000     0.1612     0.9696     0.9694     0.0001
 25 H      0.8448     1.0000     0.1552     0.9444     0.9423     0.0020
 26 H      0.8506     1.0000     0.1494     0.9643     0.9637     0.0006
 27 H      0.8462     1.0000     0.1538     0.9648     0.9639     0.0009
 28 H      0.8655     1.0000     0.1345     0.9648     0.9645     0.0003
 29 H      0.8645     1.0000     0.1355     0.9689     0.9684     0.0005
 30 H      0.8602     1.0000     0.1398     0.9679     0.9668     0.0011
 31 H      0.8294     1.0000     0.1706     0.9699     0.9656     0.0043
 32 H      0.8734     1.0000     0.1266     0.9660     0.9650     0.0010
 33 H      0.8651     1.0000     0.1349     0.9693     0.9677     0.0016
 34 P     13.3542    15.0000     1.6458     4.8280     4.8002     0.0278
 35 O      8.8237     8.0000    -0.8237     1.8459     1.8430     0.0029
 36 O      8.5478     8.0000    -0.5478     1.9140     1.9139     0.0001
 37 O      8.5457     8.0000    -0.5457     1.9082     1.8997     0.0084
 38 C      6.0026     6.0000    -0.0026     3.8239     3.8240    -0.0001
 39 C      5.9970     6.0000     0.0030     3.8478     3.8474     0.0003
 40 C      6.3685     6.0000    -0.3685     3.9100     3.9099     0.0001
 41 H      0.8633     1.0000     0.1367     0.9538     0.9536     0.0002
 42 H      0.8680     1.0000     0.1320     0.9515     0.9514     0.0000
 43 H      0.8715     1.0000     0.1285     0.9594     0.9595    -0.0000
 44 H      0.8611     1.0000     0.1389     0.9572     0.9572    -0.0000
 45 H      0.8650     1.0000     0.1350     0.9569     0.9569    -0.0000
 46 C      6.3618     6.0000    -0.3618     3.8745     3.8739     0.0006
 47 H      0.8763     1.0000     0.1237     0.9719     0.9718     0.0002
 48 H      0.8679     1.0000     0.1321     0.9486     0.9481     0.0006
 49 H      0.8777     1.0000     0.1223     0.9638     0.9638    -0.0000
 50 H      0.8635     1.0000     0.1365     0.9540     0.9542    -0.0002
 51 H      0.8628     1.0000     0.1372     0.9572     0.9572     0.0000

  Mayer bond orders larger than 0.100000
B(  0-C ,  1-C ) :   1.3090 B(  0-C ,  3-C ) :   1.3100 B(  0-C , 27-H ) :   0.9763 
B(  1-C ,  2-C ) :   1.3762 B(  1-C , 28-H ) :   0.9893 B(  2-C ,  6-C ) :   1.1265 
B(  2-C , 26-H ) :   0.9765 B(  3-C ,  4-C ) :   1.2161 B(  3-C ,  5-O ) :   0.8623 
B(  4-C ,  6-C ) :   1.3177 B(  4-C ,  9-C ) :   1.1549 B(  4-C , 11-N ) :   0.1131 
B(  5-O , 15-C ) :   0.9295 B(  6-C ,  7-C ) :   1.2639 B(  7-C ,  8-C ) :   1.3210 
B(  7-C , 29-H ) :   0.9948 B(  8-C , 10-C ) :   1.1431 B(  8-C , 30-H ) :   0.9936 
B(  9-C , 10-C ) :   1.3671 B(  9-C , 11-N ) :   0.9675 B( 10-C , 14-C ) :   1.1945 
B( 11-N , 12-C ) :   1.1156 B( 11-N , 34-P ) :   0.7980 B( 12-C , 13-C ) :   1.5024 
B( 12-C , 31-H ) :   0.9499 B( 13-C , 14-C ) :   1.3027 B( 13-C , 32-H ) :   0.9728 
B( 14-C , 33-H ) :   0.9745 B( 15-C , 16-O ) :   1.8139 B( 15-C , 17-N ) :   1.3592 
B( 17-N , 18-C ) :   0.9366 B( 17-N , 19-C ) :   0.9331 B( 18-C , 23-H ) :   0.9555 
B( 18-C , 24-H ) :   0.9575 B( 18-C , 25-H ) :   0.9506 B( 19-C , 20-H ) :   0.9571 
B( 19-C , 21-H ) :   0.9602 B( 19-C , 22-H ) :   0.9577 B( 34-P , 35-O ) :   1.6843 
B( 34-P , 36-O ) :   1.0441 B( 34-P , 37-O ) :   1.0208 B( 36-O , 38-C ) :   0.8535 
B( 37-O , 39-C ) :   0.8706 B( 38-C , 40-C ) :   1.0159 B( 38-C , 41-H ) :   0.9520 
B( 38-C , 42-H ) :   0.9638 B( 39-C , 46-C ) :   1.0039 B( 39-C , 47-H ) :   0.9620 
B( 39-C , 48-H ) :   0.9597 B( 40-C , 43-H ) :   0.9707 B( 40-C , 44-H ) :   0.9629 
B( 40-C , 45-H ) :   0.9717 B( 46-C , 49-H ) :   0.9711 B( 46-C , 50-H ) :   0.9684 
B( 46-C , 51-H ) :   0.9613 


-------
TIMINGS
-------

Total TD-DFT gradient time  ....      814.632 sec

Fock matrix formation       ....     224.792 sec  ( 27.6%)
  Coulomb formation         ....     209.808 sec  ( 93.3% of F)
  XC integration            ....      14.984 sec  (  6.7% of F)
Z-vector equation           ....     299.560 sec  ( 36.8%)
Densities                   ....       0.000 sec  (  0.0%)
One electron gradient       ....       3.141 sec  (  0.4%)
Two electron gradient       ....       0.000 sec  (  0.0%)
RI-J Coulomb gradient       ....      19.737 sec  (  2.4%)
COSX gradient               ....      38.203 sec  (  4.7%)
XC gradient                 ....     130.788 sec  ( 16.1%)
CPCM gradient               ....      20.193 sec  (  2.5%)
   A-Matrix (El+Nuc)        ....       0.397 sec  (  0.0%)
   Potential                ....      19.796 sec  (  2.4%)

Maximum memory used throughout the entire CIS-calculation: 519.3 MB
=> NOW LEAVING ORCA_CIS

-------------------------   --------------------
FINAL SINGLE POINT ENERGY     -1603.917010396469
-------------------------   --------------------

                                *** OPTIMIZATION RUN DONE ***


------------------------------------------------------------------------------
                              ORCA PROPERTY CALCULATIONS
------------------------------------------------------------------------------

GBWName                                 ... hbq-dcp-es.gbw
Number of atoms                         ...     52
Number of basis functions               ...    822
Max core memory                         ...   1024 MB

Electric properties:
Dipole moment                           ... YES
Quadrupole moment                       ...  NO
Static polarizability (Dipole/Dipole)   ...  NO
Static polarizability (Dipole/Quad.)    ...  NO
Static polarizability (Quad./Quad.)     ...  NO
Static polarizability (Velocity)        ...  NO

Atomic electric properties:
Dipole moment                           ...  NO
Quadrupole moment                       ...  NO
Static polarizability                   ...  NO

Choice of electric origin               ... Center of mass
Position of electric origin             ...    -3.092245     3.229525     2.039645

General magnetic properties:
Magnetizability                         ...  NO

EPR properties:
g-Tensor (aka g-matrix)                 ...  NO
Zero-Field splitting spin-orbit         ...  NO
Zero-field splitting spin-spin          ...  NO
Hyperfine couplings                     ...  NO (   0 nuclei)
Quadrupole couplings                    ...  NO (   0 nuclei)
Contact density                         ...  NO (   0 nuclei)

NMR properties:
Chemical shifts                         ...  NO (   0 nuclei)
Spin-rotation constants                 ...  NO (   0 nuclei)
Spin-spin couplings                     ...  NO (   0 nuclei,    0 pairs)

Choice of magnetic origin               ... GIAO
Position of magnetic origin             ...     0.000000     0.000000     0.000000

Properties with geometric perturbations:
SCF Hessian                             ...  NO
IR spectrum                             ... YES
VCD spectrum                            ...  NO
X-ray spectroscopy properties:
SCF XES/XAS/RIXS spectra                ...  NO


-------------
DIPOLE MOMENT
-------------

Method             : SCF
Type of density    : Electron Density
Multiplicity       :   1
Irrep              :   0
Energy             : -1603.9957178334736909 Eh
Relativity type    : 
Basis              : AO
                                X                 Y                 Z
Electronic contribution:     -5.807797435     -14.259474694       6.865095309
Nuclear contribution   :      8.467484436      15.076461578      -5.848979297
                        -----------------------------------------
Total Dipole Moment    :      2.659687001       0.816986884       1.016116012
                        -----------------------------------------
Magnitude (a.u.)       :      2.962076005
Magnitude (Debye)      :      7.528998866



--------------------
Rotational spectrum 
--------------------
 
Rotational constants in cm-1:             0.006952             0.006166             0.004620 
Rotational constants in MHz :           208.404620           184.837427           138.502627 

Dipole components along the rotational axes: 
x,y,z [a.u.] :     1.154805     2.191425    -1.624186 
x,y,z [Debye]:     2.935280     5.570159    -4.128351 

 

-------------
DIPOLE MOMENT
-------------

Method             : TDA/CIS
Type of density    : Electron Density
Level              : Relaxed density
State              :   1
Multiplicity       :   1
Irrep              :   0
Energy             :     0.0000000000000000 Eh
Relativity type    : 
Basis              : AO
                                X                 Y                 Z
Electronic contribution:     -8.910544734     -15.525166051       6.052150550
Nuclear contribution   :      8.467484436      15.076461578      -5.848979297
                        -----------------------------------------
Total Dipole Moment    :     -0.443060298      -0.448704473       0.203171253
                        -----------------------------------------
Magnitude (a.u.)       :      0.662507879
Magnitude (Debye)      :      1.683961202



--------------------
Rotational spectrum 
--------------------
 
Rotational constants in cm-1:             0.006952             0.006166             0.004620 
Rotational constants in MHz :           208.404620           184.837427           138.502627 

Dipole components along the rotational axes: 
x,y,z [a.u.] :    -0.614410    -0.131221     0.210232 
x,y,z [Debye]:    -1.561707    -0.333538     0.534368 

 

Dipole moment calculation done in   0.0 sec 

Maximum memory used throughout the entire PROP-calculation: 126.1 MB

----------------------------------------------------------------------------
                           ORCA NUMERICAL FREQUENCIES
----------------------------------------------------------------------------

Number of atoms                ... 52
Central differences            ... used
Number of displacements        ... 312
Numerical increment            ... 5.000e-03 bohr
IR-spectrum generation         ... on
Raman-spectrum generation      ... off
Surface Crossing Hessian       ... off

The output will be reduced. Please look at the following files:
SCF program output             ... >hbq-dcp-es.lastscf
Integral program output        ... >hbq-dcp-es.lastint
Gradient program output        ... >hbq-dcp-es.lastgrad
Dipole moment program output   ... >hbq-dcp-es.lastmom

	<< Calculating gradient on displaced geometry   1 (of 312) >>
	<< Calculating gradient on displaced geometry   2 (of 312) >>
	<< Calculating gradient on displaced geometry   3 (of 312) >>
	<< Calculating gradient on displaced geometry   4 (of 312) >>
	<< Calculating gradient on displaced geometry   5 (of 312) >>
	<< Calculating gradient on displaced geometry   6 (of 312) >>
	<< Calculating gradient on displaced geometry   7 (of 312) >>
	<< Calculating gradient on displaced geometry   8 (of 312) >>
	<< Calculating gradient on displaced geometry   9 (of 312) >>
	<< Calculating gradient on displaced geometry  10 (of 312) >>
	<< Calculating gradient on displaced geometry  11 (of 312) >>
	<< Calculating gradient on displaced geometry  12 (of 312) >>
	<< Calculating gradient on displaced geometry  13 (of 312) >>
	<< Calculating gradient on displaced geometry  14 (of 312) >>
	<< Calculating gradient on displaced geometry  15 (of 312) >>
	<< Calculating gradient on displaced geometry  16 (of 312) >>
	<< Calculating gradient on displaced geometry  17 (of 312) >>
	<< Calculating gradient on displaced geometry  18 (of 312) >>
	<< Calculating gradient on displaced geometry  19 (of 312) >>
	<< Calculating gradient on displaced geometry  20 (of 312) >>
	<< Calculating gradient on displaced geometry  21 (of 312) >>
	<< Calculating gradient on displaced geometry  22 (of 312) >>
	<< Calculating gradient on displaced geometry  23 (of 312) >>
	<< Calculating gradient on displaced geometry  24 (of 312) >>
	<< Calculating gradient on displaced geometry  25 (of 312) >>
	<< Calculating gradient on displaced geometry  26 (of 312) >>
	<< Calculating gradient on displaced geometry  27 (of 312) >>
	<< Calculating gradient on displaced geometry  28 (of 312) >>
	<< Calculating gradient on displaced geometry  29 (of 312) >>
	<< Calculating gradient on displaced geometry  30 (of 312) >>
	<< Calculating gradient on displaced geometry  31 (of 312) >>
	<< Calculating gradient on displaced geometry  32 (of 312) >>
	<< Calculating gradient on displaced geometry  33 (of 312) >>
	<< Calculating gradient on displaced geometry  34 (of 312) >>
	<< Calculating gradient on displaced geometry  35 (of 312) >>
	<< Calculating gradient on displaced geometry  36 (of 312) >>
	<< Calculating gradient on displaced geometry  37 (of 312) >>
	<< Calculating gradient on displaced geometry  38 (of 312) >>
	<< Calculating gradient on displaced geometry  39 (of 312) >>
	<< Calculating gradient on displaced geometry  40 (of 312) >>
	<< Calculating gradient on displaced geometry  41 (of 312) >>
	<< Calculating gradient on displaced geometry  42 (of 312) >>
	<< Calculating gradient on displaced geometry  43 (of 312) >>
	<< Calculating gradient on displaced geometry  44 (of 312) >>
	<< Calculating gradient on displaced geometry  45 (of 312) >>
	<< Calculating gradient on displaced geometry  46 (of 312) >>
	<< Calculating gradient on displaced geometry  47 (of 312) >>
	<< Calculating gradient on displaced geometry  48 (of 312) >>
	<< Calculating gradient on displaced geometry  49 (of 312) >>
	<< Calculating gradient on displaced geometry  50 (of 312) >>
	<< Calculating gradient on displaced geometry  51 (of 312) >>
	<< Calculating gradient on displaced geometry  52 (of 312) >>
	<< Calculating gradient on displaced geometry  53 (of 312) >>
	<< Calculating gradient on displaced geometry  54 (of 312) >>
	<< Calculating gradient on displaced geometry  55 (of 312) >>
	<< Calculating gradient on displaced geometry  56 (of 312) >>
	<< Calculating gradient on displaced geometry  57 (of 312) >>
