
                                 *****************
                                 * O   R   C   A *
                                 *****************

                                            #,                                       
                                            ###                                      
                                            ####                                     
                                            #####                                    
                                            ######                                   
                                           ########,                                 
                                     ,,################,,,,,                         
                               ,,#################################,,                 
                          ,,##########################################,,             
                       ,#########################################, ''#####,          
                    ,#############################################,,   '####,        
                  ,##################################################,,,,####,       
                ,###########''''           ''''###############################       
              ,#####''   ,,,,##########,,,,          '''####'''          '####       
            ,##' ,,,,###########################,,,                        '##       
           ' ,,###''''                  '''############,,,                           
         ,,##''                                '''############,,,,        ,,,,,,###''
      ,#''                                            '''#######################'''  
     '                                                          ''''####''''         
             ,#######,   #######,   ,#######,      ##                                
            ,#'     '#,  ##    ##  ,#'     '#,    #''#        ######   ,####,        
            ##       ##  ##   ,#'  ##            #'  '#       #        #'  '#        
            ##       ##  #######   ##           ,######,      #####,   #    #        
            '#,     ,#'  ##    ##  '#,     ,#' ,#      #,         ##   #,  ,#        
             '#######'   ##     ##  '#######'  #'      '#     #####' # '####'        



                  #######################################################
                  #                        -***-                        #
                  #          Department of theory and spectroscopy      #
                  #    Directorship and core code : Frank Neese         #
                  #        Max Planck Institute fuer Kohlenforschung    #
                  #                Kaiser Wilhelm Platz 1               #
                  #                 D-45470 Muelheim/Ruhr               #
                  #                      Germany                        #
                  #                                                     #
                  #                  All rights reserved                #
                  #                        -***-                        #
                  #######################################################


                         Program Version 5.0.4 -  RELEASE  -


 With contributions from (in alphabetic order):
   Daniel Aravena         : Magnetic Suceptibility
   Michael Atanasov       : Ab Initio Ligand Field Theory (pilot matlab implementation)
   Alexander A. Auer      : GIAO ZORA, VPT2 properties, NMR spectrum
   Ute Becker             : Parallelization
   Giovanni Bistoni       : ED, misc. LED, open-shell LED, HFLD
   Martin Brehm           : Molecular dynamics
   Dmytro Bykov           : SCF Hessian
   Vijay G. Chilkuri      : MRCI spin determinant printing, contributions to CSF-ICE
   Dipayan Datta          : RHF DLPNO-CCSD density
   Achintya Kumar Dutta   : EOM-CC, STEOM-CC
   Dmitry Ganyushin       : Spin-Orbit,Spin-Spin,Magnetic field MRCI
   Miquel Garcia          : C-PCM and meta-GGA Hessian, CC/C-PCM, Gaussian charge scheme
   Yang Guo               : DLPNO-NEVPT2, F12-NEVPT2, CIM, IAO-localization
   Andreas Hansen         : Spin unrestricted coupled pair/coupled cluster methods
   Benjamin Helmich-Paris : MC-RPA, TRAH-SCF, COSX integrals
   Lee Huntington         : MR-EOM, pCC
   Robert Izsak           : Overlap fitted RIJCOSX, COSX-SCS-MP3, EOM
   Marcus Kettner         : VPT2
   Christian Kollmar      : KDIIS, OOCD, Brueckner-CCSD(T), CCSD density, CASPT2, CASPT2-K
   Simone Kossmann        : Meta GGA functionals, TD-DFT gradient, OOMP2, MP2 Hessian
   Martin Krupicka        : Initial AUTO-CI
   Lucas Lang             : DCDCAS
   Marvin Lechner         : AUTO-CI (C++ implementation), FIC-MRCC
   Dagmar Lenk            : GEPOL surface, SMD
   Dimitrios Liakos       : Extrapolation schemes; Compound Job, initial MDCI parallelization
   Dimitrios Manganas     : Further ROCIS development; embedding schemes
   Dimitrios Pantazis     : SARC Basis sets
   Anastasios Papadopoulos: AUTO-CI, single reference methods and gradients
   Taras Petrenko         : DFT Hessian,TD-DFT gradient, ASA, ECA, R-Raman, ABS, FL, XAS/XES, NRVS
   Peter Pinski           : DLPNO-MP2, DLPNO-MP2 Gradient
   Christoph Reimann      : Effective Core Potentials
   Marius Retegan         : Local ZFS, SOC
   Christoph Riplinger    : Optimizer, TS searches, QM/MM, DLPNO-CCSD(T), (RO)-DLPNO pert. Triples
   Tobias Risthaus        : Range-separated hybrids, TD-DFT gradient, RPA, STAB
   Michael Roemelt        : Original ROCIS implementation
   Masaaki Saitow         : Open-shell DLPNO-CCSD energy and density
   Barbara Sandhoefer     : DKH picture change effects
   Avijit Sen             : IP-ROCIS
   Kantharuban Sivalingam : CASSCF convergence, NEVPT2, FIC-MRCI
   Bernardo de Souza      : ESD, SOC TD-DFT
   Georgi Stoychev        : AutoAux, RI-MP2 NMR, DLPNO-MP2 response
   Willem Van den Heuvel  : Paramagnetic NMR
   Boris Wezisla          : Elementary symmetry handling
   Frank Wennmohs         : Technical directorship


 We gratefully acknowledge several colleagues who have allowed us to
 interface, adapt or use parts of their codes:
   Stefan Grimme, W. Hujo, H. Kruse, P. Pracht,  : VdW corrections, initial TS optimization,
                  C. Bannwarth, S. Ehlert          DFT functionals, gCP, sTDA/sTD-DF
   Ed Valeev, F. Pavosevic, A. Kumar             : LibInt (2-el integral package), F12 methods
   Garnet Chan, S. Sharma, J. Yang, R. Olivares  : DMRG
   Ulf Ekstrom                                   : XCFun DFT Library
   Mihaly Kallay                                 : mrcc  (arbitrary order and MRCC methods)
   Jiri Pittner, Ondrej Demel                    : Mk-CCSD
   Frank Weinhold                                : gennbo (NPA and NBO analysis)
   Christopher J. Cramer and Donald G. Truhlar   : smd solvation model
   Lars Goerigk                                  : TD-DFT with DH, B97 family of functionals
   V. Asgeirsson, H. Jonsson                     : NEB implementation
   FAccTs GmbH                                   : IRC, NEB, NEB-TS, DLPNO-Multilevel, CI-OPT
                                                   MM, QMMM, 2- and 3-layer-ONIOM, Crystal-QMMM,
                                                   LR-CPCM, SF, NACMEs, symmetry and pop. for TD-DFT,
                                                   nearIR, NL-DFT gradient (VV10), updates on ESD,
                                                   ML-optimized integration grids
   S Lehtola, MJT Oliveira, MAL Marques          : LibXC Library
   Liviu Ungur et al                             : ANISO software


 Your calculation uses the libint2 library for the computation of 2-el integrals
 For citations please refer to: http://libint.valeyev.net

 Your ORCA version has been built with support for libXC version: 5.1.0
 For citations please refer to: https://tddft.org/programs/libxc/

 This ORCA versions uses:
   CBLAS   interface :  Fast vector & matrix operations
   LAPACKE interface :  Fast linear algebra routines
   SCALAPACK package :  Parallel linear algebra routines
   Shared memory     :  Shared parallel matrices
   BLAS/LAPACK       :  OpenBLAS 0.3.15  USE64BITINT DYNAMIC_ARCH NO_AFFINITY Zen SINGLE_THREADED
        Core in use  :  Zen
   Copyright (c) 2011-2014, The OpenBLAS Project


================================================================================

----- Orbital basis set information -----
Your calculation utilizes the basis: def2-TZVP(-f)
   F. Weigend and R. Ahlrichs, Phys. Chem. Chem. Phys. 7, 3297 (2005).

----- AuxJ basis set information -----
Your calculation utilizes the auxiliary basis: def2/J
   F. Weigend, Phys. Chem. Chem. Phys. 8, 1057 (2006).

----- AuxC basis set information -----
Your calculation utilizes the auxiliary basis: def2-TZVP/C
  H-La, Hf-Rn : A. Hellweg, C. Hattig, S. Hofener and W. Klopper, Theor. Chem. Acc. 117, 587 (2007).
        Ce-Lu : J. Chmela and M. E. Harding, Mol. Phys. (2018).

================================================================================
                                        WARNINGS
                       Please study these warnings very carefully!
================================================================================

INFO   : Checking CIS options ...

WARNING: (CIS/TDDFT): Analytic excited state gradients requested
  ===> : turning on equilibrium dielectric conditions.

WARNING: Geometry Optimization
  ===> : Switching off AutoStart
         For restart on a previous wavefunction, please use MOREAD

WARNING: CIS/ROCIS methods need fully converged wavefunctions
  ===> : Setting SCFConvForced true
         You can overwrite this default with %scf ConvForced false 


INFO   : the flag for use of the SHARK integral package has been found!

================================================================================
                                       INPUT FILE
================================================================================
NAME = NMU-H_ES.inp
|  1> ! B3LYP/G OPT Def2-TZVP(-f) Def2-TZVP/C Def2/J RIJCOSX TightSCF CPCM(Water) AllPop SOSCF
|  2> %maxcore 3000
|  3> %tddft
|  4>     NRoots 3
|  5>     IRoot 1
|  6> end
|  7> 
|  8> * xyz 1 1
|  9>    C       -6.61766       -1.50485        0.05143
| 10>    C       -6.64071       -2.71913       -0.85416
| 11>    C       -5.61981       -3.73441       -0.36295
| 12>    H       -6.41557       -2.41815       -1.87992
| 13>    H       -7.64539       -3.14076       -0.84450
| 14>    C       -4.26611       -3.10074       -0.22826
| 15>    H       -5.55492       -4.59502       -1.02817
| 16>    H       -5.92885       -4.11226        0.61848
| 17>    C       -4.15413       -1.68851        0.07640
| 18>    N       -5.26367       -0.94736        0.20927
| 19>    H       -6.98681       -1.75444        1.05182
| 20>    H       -7.24190       -0.70460       -0.34061
| 21>    C       -5.20857        0.45743        0.64611
| 22>    C       -3.96417        1.15202        0.13153
| 23>    H       -5.23819        0.46405        1.74048
| 24>    H       -6.11264        0.93997        0.28424
| 25>    C       -2.72565        0.38227        0.56632
| 26>    H       -3.94138        2.16816        0.52386
| 27>    H       -4.00866        1.21702       -0.95782
| 28>    C       -2.86524       -1.08053        0.25522
| 29>    H       -2.57367        0.49955        1.64515
| 30>    H       -1.83235        0.77578        0.08359
| 31>    C       -3.12380       -3.83450       -0.35744
| 32>    C       -1.76104       -1.89047        0.13516
| 33>    C       -1.84744       -3.26212       -0.17889
| 34>    O       -0.53924       -1.31160        0.32781
| 35>    C        0.64784       -2.00508        0.22068
| 36>    C       -0.64499       -4.00638       -0.30292
| 37>    C        0.56996       -3.42785       -0.12185
| 38>    O        1.66369       -1.37986        0.41275
| 39>    C        1.83767       -4.19173       -0.24401
| 40>    C        2.48593       -4.68290        0.92107
| 41>    C        2.35730       -4.42584       -1.48156
| 42>    N        3.53977       -5.13767       -1.61575
| 43>    C        4.20055       -5.63271       -0.49648
| 44>    C        3.68959       -5.41394        0.74250
| 45>    H        1.90347       -4.07511       -2.39447
| 46>    H        4.22002       -5.80841        1.59814
| 47>    H        5.10981       -6.17933       -0.68662
| 48>    H        2.07455       -4.50718        1.90136
| 49>    H       -3.18750       -4.88926       -0.59271
| 50>    H       -0.71043       -5.05918       -0.54824
| 51>    H        3.90651       -5.31875       -2.53313
| 52> *
| 53> 
| 54> 
| 55>                          ****END OF INPUT****
================================================================================

                       *****************************
                       * Geometry Optimization Run *
                       *****************************

Geometry optimization settings:
Update method            Update   .... BFGS
Choice of coordinates    CoordSys .... Z-matrix Internals
Initial Hessian          InHess   .... Almoef's Model

Convergence Tolerances:
Energy Change            TolE     ....  5.0000e-06 Eh
Max. Gradient            TolMAXG  ....  3.0000e-04 Eh/bohr
RMS Gradient             TolRMSG  ....  1.0000e-04 Eh/bohr
Max. Displacement        TolMAXD  ....  4.0000e-03 bohr
RMS Displacement         TolRMSD  ....  2.0000e-03 bohr
Strict Convergence                ....  False
------------------------------------------------------------------------------
                        ORCA OPTIMIZATION COORDINATE SETUP
------------------------------------------------------------------------------

The optimization will be done in new redundant internal coordinates
Making redundant internal coordinates   ...  (new redundants) done
Evaluating the initial hessian          ...  (Almloef) done
Evaluating the coordinates              ...  done
Calculating the B-matrix                .... done
Calculating the G-matrix                .... done
Diagonalizing the G-matrix              .... done
Small eigenvalue found = 6.196e-03
Small eigenvalue found = 8.650e-03
Small eigenvalue found = 2.598e-02
The first mode is                       ....  141
The number of degrees of freedom        ....  123

    -----------------------------------------------------------------
                    Redundant Internal Coordinates


    -----------------------------------------------------------------
         Definition                    Initial Value    Approx d2E/dq
    -----------------------------------------------------------------
      1. B(C   1,C   0)                  1.5150         0.394798   
      2. B(C   2,C   1)                  1.5213         0.385724   
      3. B(H   3,C   1)                  1.0925         0.356865   
      4. B(H   4,C   1)                  1.0896         0.360618   
      5. B(C   5,C   2)                  1.5007         0.415987   
      6. B(H   6,C   2)                  1.0897         0.360539   
      7. B(H   7,C   2)                  1.0961         0.352093   
      8. B(C   8,C   5)                  1.4491         0.502951   
      9. B(N   9,C   8)                  1.3409         0.670189   
     10. B(N   9,C   0)                  1.4728         0.412905   
     11. B(H  10,C   0)                  1.0951         0.353355   
     12. B(H  11,C   0)                  1.0880         0.362739   
     13. B(C  12,N   9)                  1.4722         0.413780   
     14. B(C  13,C  12)                  1.5152         0.394473   
     15. B(H  14,C  12)                  1.0948         0.353818   
     16. B(H  15,C  12)                  1.0868         0.364356   
     17. B(C  16,C  13)                  1.5217         0.385179   
     18. B(H  17,C  13)                  1.0895         0.360779   
     19. B(H  18,C  13)                  1.0922         0.357209   
     20. B(C  19,C  16)                  1.5020         0.414023   
     21. B(C  19,C   8)                  1.4363         0.527142   
     22. B(H  20,C  16)                  1.0958         0.352539   
     23. B(H  21,C  16)                  1.0890         0.361461   
     24. B(C  22,C   5)                  1.3638         0.687910   
     25. B(C  23,C  19)                  1.3747         0.661030   
     26. B(C  24,C  23)                  1.4098         0.580979   
     27. B(C  24,C  22)                  1.4102         0.580164   
     28. B(O  25,C  23)                  1.3656         0.611962   
     29. B(C  26,O  25)                  1.3790         0.582744   
     30. B(C  27,C  24)                  1.4196         0.560472   
     31. B(C  28,C  26)                  1.4655         0.473474   
     32. B(C  28,C  27)                  1.3578         0.703285   
     33. B(O  29,C  26)                  1.2082         1.091262   
     34. B(C  30,C  28)                  1.4851         0.440566   
     35. B(C  31,C  30)                  1.4209         0.557791   
     36. B(C  32,C  30)                  1.3625         0.691265   
     37. B(N  33,C  32)                  1.3867         0.566417   
     38. B(C  34,N  33)                  1.3908         0.557855   
     39. B(C  35,C  34)                  1.3579         0.702881   
     40. B(C  35,C  31)                  1.4195         0.560536   
     41. B(H  36,C  32)                  1.0781         0.376141   
     42. B(H  37,C  35)                  1.0812         0.371875   
     43. B(H  38,C  34)                  1.0778         0.376576   
     44. B(H  39,C  31)                  1.0775         0.376974   
     45. B(H  40,C  22)                  1.0826         0.370083   
     46. B(H  41,C  27)                  1.0830         0.369503   
     47. B(H  42,N  33)                  1.0044         0.441658   
     48. A(C   1,C   0,H  10)          110.9923         0.326263   
     49. A(H  10,C   0,H  11)          107.6608         0.290310   
     50. A(C   1,C   0,H  11)          111.4331         0.327674   
     51. A(C   1,C   0,N   9)          112.4241         0.370832   
     52. A(N   9,C   0,H  11)          106.7188         0.328125   
     53. A(N   9,C   0,H  10)          107.3535         0.326711   
     54. A(C   2,C   1,H   3)          110.4107         0.325546   
     55. A(C   0,C   1,H   3)          109.7130         0.326794   
     56. A(H   3,C   1,H   4)          107.7555         0.290493   
     57. A(C   2,C   1,H   4)          110.9566         0.326107   
     58. A(C   0,C   1,H   4)          108.5955         0.327358   
     59. A(C   0,C   1,C   2)          109.3721         0.368824   
     60. A(C   5,C   2,H   7)          108.6334         0.328893   
     61. A(C   1,C   2,C   5)          110.6411         0.372155   
     62. A(C   1,C   2,H   7)          109.2663         0.324826   
     63. A(C   5,C   2,H   6)          109.5456         0.330183   
     64. A(C   1,C   2,H   6)          111.7117         0.326095   
     65. A(H   6,C   2,H   7)          106.9262         0.289870   
     66. A(C   2,C   5,C   8)          120.0059         0.389683   
     67. A(C   2,C   5,C  22)          121.3224         0.411769   
     68. A(C   8,C   5,C  22)          118.6554         0.425940   
     69. A(C   5,C   8,N   9)          119.7071         0.421199   
     70. A(N   9,C   8,C  19)          119.7516         0.424750   
     71. A(C   5,C   8,C  19)          120.5357         0.406239   
     72. A(C   0,N   9,C   8)          122.7438         0.404079   
     73. A(C   8,N   9,C  12)          121.7259         0.404230   
     74. A(C   0,N   9,C  12)          115.3040         0.371500   
     75. A(H  14,C  12,H  15)          107.9176         0.290572   
     76. A(C  13,C  12,H  15)          111.5048         0.327870   
     77. A(N   9,C  12,H  15)          107.0820         0.328481   
     78. A(C  13,C  12,H  14)          111.0347         0.326289   
     79. A(N   9,C  12,H  14)          107.5402         0.326895   
     80. A(N   9,C  12,C  13)          111.5554         0.370914   
     81. A(C  12,C  13,H  17)          108.8106         0.327337   
     82. A(C  12,C  13,C  16)          109.8481         0.368682   
     83. A(H  17,C  13,H  18)          107.7289         0.290557   
     84. A(C  16,C  13,H  18)          110.3802         0.325522   
     85. A(C  12,C  13,H  18)          109.4242         0.326802   
     86. A(C  16,C  13,H  17)          110.6025         0.326055   
     87. A(H  20,C  16,H  21)          106.4981         0.290044   
     88. A(C  19,C  16,H  21)          109.6544         0.330064   
     89. A(C  13,C  16,H  21)          110.9904         0.326156   
     90. A(C  13,C  16,H  20)          109.8804         0.324818   
     91. A(C  13,C  16,C  19)          110.9668         0.371761   
     92. A(C  19,C  16,H  20)          108.7260         0.328704   
     93. A(C  16,C  19,C  23)          121.1480         0.408528   
     94. A(C   8,C  19,C  23)          117.4227         0.426483   
     95. A(C   8,C  19,C  16)          121.4290         0.392572   
     96. A(C   5,C  22,C  24)          121.8526         0.437010   
     97. A(C   5,C  22,H  40)          119.7033         0.360868   
     98. A(C  24,C  22,H  40)          118.4405         0.350586   
     99. A(C  24,C  23,O  25)          119.9117         0.425234   
    100. A(C  19,C  23,O  25)          117.1665         0.435202   
    101. A(C  19,C  23,C  24)          122.9210         0.433994   
    102. A(C  23,C  24,C  27)          118.5320         0.421346   
    103. A(C  22,C  24,C  27)          122.8748         0.421240   
    104. A(C  22,C  24,C  23)          118.5931         0.423953   
    105. A(C  23,O  25,C  26)          123.0960         0.422696   
    106. A(C  28,C  26,O  29)          125.7489         0.454919   
    107. A(O  25,C  26,O  29)          116.8212         0.469372   
    108. A(O  25,C  26,C  28)          117.4289         0.406482   
    109. A(C  24,C  27,C  28)          121.5271         0.436032   
    110. A(C  28,C  27,H  41)          119.8998         0.362135   
    111. A(C  24,C  27,H  41)          118.5731         0.348457   
    112. A(C  27,C  28,C  30)          122.2550         0.417630   
    113. A(C  26,C  28,C  30)          118.2442         0.389480   
    114. A(C  26,C  28,C  27)          119.4973         0.423033   
    115. A(C  31,C  30,C  32)          120.7561         0.434306   
    116. A(C  28,C  30,C  32)          119.2521         0.416351   
    117. A(C  28,C  30,C  31)          119.9874         0.400835   
    118. A(C  35,C  31,H  39)          121.4760         0.349642   
    119. A(C  30,C  31,H  39)          121.0253         0.349353   
    120. A(C  30,C  31,C  35)          117.4985         0.418305   
    121. A(N  33,C  32,H  36)          116.3591         0.347979   
    122. A(C  30,C  32,H  36)          123.5504         0.362170   
    123. A(C  30,C  32,N  33)          120.0870         0.432656   
    124. A(C  34,N  33,H  42)          119.8257         0.353521   
    125. A(C  32,N  33,H  42)          119.4902         0.354435   
    126. A(C  32,N  33,C  34)          120.6607         0.413682   
    127. A(C  35,C  34,H  38)          124.0620         0.363274   
    128. A(N  33,C  34,H  38)          116.0615         0.347155   
    129. A(N  33,C  34,C  35)          119.8766         0.432767   
    130. A(C  34,C  35,H  37)          118.5977         0.362495   
    131. A(C  31,C  35,H  37)          120.2851         0.348840   
    132. A(C  31,C  35,C  34)          121.1172         0.435996   
    133. D(H   4,C   1,C   0,N   9)    174.1647         0.012379   
    134. D(H   4,C   1,C   0,H  11)    -66.0782         0.012379   
    135. D(H   3,C   1,C   0,H  10)    171.4413         0.012379   
    136. D(C   2,C   1,C   0,H  11)    172.7032         0.012379   
    137. D(H   3,C   1,C   0,H  11)     51.4598         0.012379   
    138. D(C   2,C   1,C   0,N   9)     52.9461         0.012379   
    139. D(H   3,C   1,C   0,N   9)    -68.2973         0.012379   
    140. D(H   4,C   1,C   0,H  10)     53.9033         0.012379   
    141. D(C   2,C   1,C   0,H  10)    -67.3153         0.012379   
    142. D(H   6,C   2,C   1,C   0)   -176.0226         0.011840   
    143. D(C   5,C   2,C   1,H   4)   -173.4695         0.011840   
    144. D(C   5,C   2,C   1,C   0)    -53.6923         0.011840   
    145. D(H   7,C   2,C   1,H   4)    -53.9082         0.011840   
    146. D(H   6,C   2,C   1,H   3)    -55.2028         0.011840   
    147. D(C   5,C   2,C   1,H   3)     67.1276         0.011840   
    148. D(H   7,C   2,C   1,C   0)     65.8690         0.011840   
    149. D(H   7,C   2,C   1,H   3)   -173.3112         0.011840   
    150. D(H   6,C   2,C   1,H   4)     64.2002         0.011840   
    151. D(C  22,C   5,C   2,H   7)     87.8332         0.012803   
    152. D(C  22,C   5,C   2,H   6)    -28.6374         0.012803   
    153. D(C  22,C   5,C   2,C   1)   -152.2254         0.012803   
    154. D(C   8,C   5,C   2,H   7)    -90.6780         0.012803   
    155. D(C   8,C   5,C   2,H   6)    152.8514         0.012803   
    156. D(C   8,C   5,C   2,C   1)     29.2634         0.012803   
    157. D(C  19,C   8,C   5,C  22)     -0.7957         0.017232   
    158. D(C  19,C   8,C   5,C   2)    177.7550         0.017232   
    159. D(N   9,C   8,C   5,C   2)     -1.3861         0.017232   
    160. D(N   9,C   8,C   5,C  22)   -179.9367         0.017232   
    161. D(C   8,N   9,C   0,H  10)     95.8723         0.014542   
    162. D(C   8,N   9,C   0,C   1)    -26.4704         0.014542   
    163. D(C   8,N   9,C   0,H  11)   -148.9301         0.014542   
    164. D(C  12,N   9,C   8,C  19)     -5.2019         0.036857   
    165. D(C  12,N   9,C   8,C   5)    173.9459         0.036857   
    166. D(C   0,N   9,C   8,C  19)   -179.4772         0.036857   
    167. D(C   0,N   9,C   8,C   5)     -0.3293         0.036857   
    168. D(C  12,N   9,C   0,H  11)     36.4549         0.014542   
    169. D(C  12,N   9,C   0,H  10)    -78.7427         0.014542   
    170. D(C  12,N   9,C   0,C   1)    158.9146         0.014542   
    171. D(H  15,C  12,N   9,C   8)    156.6172         0.014603   
    172. D(H  15,C  12,N   9,C   0)    -28.7077         0.014603   
    173. D(H  14,C  12,N   9,C   8)    -87.6186         0.014603   
    174. D(H  14,C  12,N   9,C   0)     87.0565         0.014603   
    175. D(C  13,C  12,N   9,C   8)     34.3597         0.014603   
    176. D(C  13,C  12,N   9,C   0)   -150.9652         0.014603   
    177. D(H  18,C  13,C  12,H  15)    -54.1147         0.012359   
    178. D(H  18,C  13,C  12,H  14)   -174.4988         0.012359   
    179. D(H  18,C  13,C  12,N   9)     65.5619         0.012359   
    180. D(H  17,C  13,C  12,H  15)     63.3516         0.012359   
    181. D(H  17,C  13,C  12,H  14)    -57.0325         0.012359   
    182. D(H  17,C  13,C  12,N   9)   -176.9718         0.012359   
    183. D(C  16,C  13,C  12,H  15)   -175.4386         0.012359   
    184. D(C  16,C  13,C  12,H  14)     64.1773         0.012359   
    185. D(C  16,C  13,C  12,N   9)    -55.7620         0.012359   
    186. D(H  21,C  16,C  13,H  18)     50.6459         0.011809   
    187. D(H  21,C  16,C  13,H  17)    -68.4780         0.011809   
    188. D(H  21,C  16,C  13,C  12)    171.3946         0.011809   
    189. D(H  20,C  16,C  13,H  18)    168.1740         0.011809   
    190. D(H  20,C  16,C  13,H  17)     49.0501         0.011809   
    191. D(H  20,C  16,C  13,C  12)    -71.0773         0.011809   
    192. D(C  19,C  16,C  13,H  18)    -71.5502         0.011809   
    193. D(C  19,C  16,C  13,H  17)    169.3259         0.011809   
    194. D(C  19,C  16,C  13,C  12)     49.1985         0.011809   
    195. D(C  16,C  19,C   8,C   5)    179.7651         0.018962   
    196. D(C  23,C  19,C  16,H  21)     35.1868         0.012687   
    197. D(C  23,C  19,C  16,C  13)    158.1572         0.012687   
    198. D(C   8,C  19,C  16,H  21)   -145.0352         0.012687   
    199. D(C   8,C  19,C  16,H  20)     98.8942         0.012687   
    200. D(C   8,C  19,C  16,C  13)    -22.0649         0.012687   
    201. D(C  23,C  19,C   8,N   9)    178.6917         0.018962   
    202. D(C  23,C  19,C  16,H  20)    -80.8837         0.012687   
    203. D(C  23,C  19,C   8,C   5)     -0.4490         0.018962   
    204. D(C  16,C  19,C   8,N   9)     -1.0942         0.018962   
    205. D(H  40,C  22,C   5,C   8)   -179.5109         0.033233   
    206. D(H  40,C  22,C   5,C   2)      1.9583         0.033233   
    207. D(C  24,C  22,C   5,C   8)      1.1793         0.033233   
    208. D(C  24,C  22,C   5,C   2)   -177.3515         0.033233   
    209. D(O  25,C  23,C  19,C  16)      0.8305         0.030498   
    210. D(O  25,C  23,C  19,C   8)   -178.9561         0.030498   
    211. D(C  24,C  23,C  19,C  16)   -178.8492         0.030498   
    212. D(C  24,C  23,C  19,C   8)      1.3643         0.030498   
    213. D(C  27,C  24,C  23,O  25)     -0.7602         0.023194   
    214. D(C  27,C  24,C  23,C  19)    178.9110         0.023194   
    215. D(C  22,C  24,C  23,O  25)    179.3056         0.023194   
    216. D(C  22,C  24,C  23,C  19)     -1.0231         0.023194   
    217. D(C  27,C  24,C  22,H  40)      0.4279         0.023126   
    218. D(C  27,C  24,C  22,C   5)    179.7461         0.023126   
    219. D(C  23,C  24,C  22,H  40)   -179.6409         0.023126   
    220. D(C  23,C  24,C  22,C   5)     -0.3228         0.023126   
    221. D(C  26,O  25,C  23,C  24)      0.5204         0.027425   
    222. D(C  26,O  25,C  23,C  19)   -179.1694         0.027425   
    223. D(O  29,C  26,O  25,C  23)    179.9052         0.024712   
    224. D(C  28,C  26,O  25,C  23)      0.2351         0.024712   
    225. D(H  41,C  27,C  24,C  23)   -179.7472         0.021519   
    226. D(H  41,C  27,C  24,C  22)      0.1840         0.021519   
    227. D(C  28,C  27,C  24,C  23)      0.2348         0.021519   
    228. D(C  28,C  27,C  24,C  22)   -179.8341         0.021519   
    229. D(C  30,C  28,C  27,H  41)     -0.1879         0.034863   
    230. D(C  30,C  28,C  27,C  24)    179.8304         0.034863   
    231. D(C  26,C  28,C  27,H  41)   -179.5007         0.034863   
    232. D(C  26,C  28,C  27,C  24)      0.5176         0.034863   
    233. D(C  30,C  28,C  26,O  29)      0.2688         0.015264   
    234. D(C  30,C  28,C  26,O  25)    179.9061         0.015264   
    235. D(C  27,C  28,C  26,O  29)    179.6091         0.015264   
    236. D(C  27,C  28,C  26,O  25)     -0.7536         0.015264   
    237. D(C  32,C  30,C  28,C  27)     81.1224         0.013243   
    238. D(C  32,C  30,C  28,C  26)    -99.5565         0.013243   
    239. D(C  31,C  30,C  28,C  27)    -98.1279         0.013243   
    240. D(C  31,C  30,C  28,C  26)     81.1932         0.013243   
    241. D(H  39,C  31,C  30,C  32)   -179.4970         0.021306   
    242. D(H  39,C  31,C  30,C  28)     -0.2581         0.021306   
    243. D(C  35,C  31,C  30,C  32)      0.3395         0.021306   
    244. D(C  35,C  31,C  30,C  28)    179.5784         0.021306   
    245. D(H  36,C  32,C  30,C  31)    179.9852         0.033585   
    246. D(H  36,C  32,C  30,C  28)      0.7407         0.033585   
    247. D(N  33,C  32,C  30,C  31)     -0.7287         0.033585   
    248. D(N  33,C  32,C  30,C  28)   -179.9731         0.033585   
    249. D(H  42,N  33,C  32,H  36)     -1.7136         0.025656   
    250. D(H  42,N  33,C  32,C  30)    178.9504         0.025656   
    251. D(C  34,N  33,C  32,H  36)   -179.9490         0.025656   
    252. D(C  34,N  33,C  32,C  30)      0.7150         0.025656   
    253. D(H  38,C  34,N  33,H  42)      1.4512         0.024843   
    254. D(H  38,C  34,N  33,C  32)    179.6807         0.024843   
    255. D(C  35,C  34,N  33,H  42)   -178.5343         0.024843   
    256. D(C  35,C  34,N  33,C  32)     -0.3048         0.024843   
    257. D(H  37,C  35,C  31,C  30)   -179.9936         0.021524   
    258. D(C  34,C  35,C  31,H  39)    179.9064         0.021524   
    259. D(C  34,C  35,C  31,C  30)      0.0706         0.021524   
    260. D(H  37,C  35,C  34,H  38)     -0.0059         0.034820   
    261. D(H  37,C  35,C  34,N  33)    179.9783         0.034820   
    262. D(C  31,C  35,C  34,H  38)    179.9310         0.034820   
    263. D(C  31,C  35,C  34,N  33)     -0.0848         0.034820   
    264. D(H  37,C  35,C  31,H  39)     -0.1578         0.021524   
    -----------------------------------------------------------------

Number of atoms                         .... 43
Number of degrees of freedom            .... 264

         *************************************************************
         *                GEOMETRY OPTIMIZATION CYCLE   1            *
         *************************************************************
---------------------------------
CARTESIAN COORDINATES (ANGSTROEM)
---------------------------------
  C     -6.617660   -1.504850    0.051430
  C     -6.640710   -2.719130   -0.854160
  C     -5.619810   -3.734410   -0.362950
  H     -6.415570   -2.418150   -1.879920
  H     -7.645390   -3.140760   -0.844500
  C     -4.266110   -3.100740   -0.228260
  H     -5.554920   -4.595020   -1.028170
  H     -5.928850   -4.112260    0.618480
  C     -4.154130   -1.688510    0.076400
  N     -5.263670   -0.947360    0.209270
  H     -6.986810   -1.754440    1.051820
  H     -7.241900   -0.704600   -0.340610
  C     -5.208570    0.457430    0.646110
  C     -3.964170    1.152020    0.131530
  H     -5.238190    0.464050    1.740480
  H     -6.112640    0.939970    0.284240
  C     -2.725650    0.382270    0.566320
  H     -3.941380    2.168160    0.523860
  H     -4.008660    1.217020   -0.957820
  C     -2.865240   -1.080530    0.255220
  H     -2.573670    0.499550    1.645150
  H     -1.832350    0.775780    0.083590
  C     -3.123800   -3.834500   -0.357440
  C     -1.761040   -1.890470    0.135160
  C     -1.847440   -3.262120   -0.178890
  O     -0.539240   -1.311600    0.327810
  C      0.647840   -2.005080    0.220680
  C     -0.644990   -4.006380   -0.302920
  C      0.569960   -3.427850   -0.121850
  O      1.663690   -1.379860    0.412750
  C      1.837670   -4.191730   -0.244010
  C      2.485930   -4.682900    0.921070
  C      2.357300   -4.425840   -1.481560
  N      3.539770   -5.137670   -1.615750
  C      4.200550   -5.632710   -0.496480
  C      3.689590   -5.413940    0.742500
  H      1.903470   -4.075110   -2.394470
  H      4.220020   -5.808410    1.598140
  H      5.109810   -6.179330   -0.686620
  H      2.074550   -4.507180    1.901360
  H     -3.187500   -4.889260   -0.592710
  H     -0.710430   -5.059180   -0.548240
  H      3.906510   -5.318750   -2.533130

----------------------------
CARTESIAN COORDINATES (A.U.)
----------------------------
  NO LB      ZA    FRAG     MASS         X           Y           Z
   0 C     6.0000    0    12.011  -12.505565   -2.843754    0.097189
   1 C     6.0000    0    12.011  -12.549123   -5.138411   -1.614128
   2 C     6.0000    0    12.011  -10.619902   -7.057012   -0.685876
   3 H     1.0000    0     1.008  -12.123670   -4.569641   -3.552534
   4 H     1.0000    0     1.008  -14.447693   -5.935176   -1.595874
   5 C     6.0000    0    12.011   -8.061780   -5.859549   -0.431349
   6 H     1.0000    0     1.008  -10.497277   -8.683329   -1.942960
   7 H     1.0000    0     1.008  -11.203903   -7.771045    1.168758
   8 C     6.0000    0    12.011   -7.850168   -3.190821    0.144375
   9 N     7.0000    0    14.007   -9.946895   -1.790251    0.395463
  10 H     1.0000    0     1.008  -13.203157   -3.315411    1.987652
  11 H     1.0000    0     1.008  -13.685208   -1.331501   -0.643660
  12 C     6.0000    0    12.011   -9.842771    0.864417    1.220971
  13 C     6.0000    0    12.011   -7.491196    2.177002    0.248556
  14 H     1.0000    0     1.008   -9.898745    0.876927    3.289031
  15 H     1.0000    0     1.008  -11.551216    1.776286    0.537136
  16 C     6.0000    0    12.011   -5.150732    0.722386    1.070190
  17 H     1.0000    0     1.008   -7.448129    4.097229    0.989952
  18 H     1.0000    0     1.008   -7.575270    2.299834   -1.810017
  19 C     6.0000    0    12.011   -5.414519   -2.041906    0.482296
  20 H     1.0000    0     1.008   -4.863531    0.944013    3.108883
  21 H     1.0000    0     1.008   -3.462640    1.466012    0.157962
  22 C     6.0000    0    12.011   -5.903126   -7.246155   -0.675464
  23 C     6.0000    0    12.011   -3.327883   -3.572471    0.255415
  24 C     6.0000    0    12.011   -3.491156   -6.164513   -0.338053
  25 O     8.0000    0    15.999   -1.019016   -2.478565    0.619471
  26 C     6.0000    0    12.011    1.224240   -3.789052    0.417025
  27 C     6.0000    0    12.011   -1.218854   -7.570961   -0.572436
  28 C     6.0000    0    12.011    1.077068   -6.477698   -0.230263
  29 O     8.0000    0    15.999    3.143918   -2.607558    0.779984
  30 C     6.0000    0    12.011    3.472693   -7.921222   -0.461112
  31 C     6.0000    0    12.011    4.697727   -8.849399    1.740570
  32 C     6.0000    0    12.011    4.454651   -8.363626   -2.799743
  33 N     7.0000    0    14.007    6.689196   -9.708789   -3.053325
  34 C     6.0000    0    12.011    7.937889  -10.644279   -0.938211
  35 C     6.0000    0    12.011    6.972315  -10.230864    1.403122
  36 H     1.0000    0     1.008    3.597037   -7.700842   -4.524893
  37 H     1.0000    0     1.008    7.974682  -10.976304    3.020047
  38 H     1.0000    0     1.008    9.656141  -11.677241   -1.297524
  39 H     1.0000    0     1.008    3.920331   -8.517336    3.593050
  40 H     1.0000    0     1.008   -6.023502   -9.239362   -1.120060
  41 H     1.0000    0     1.008   -1.342518   -9.560465   -1.036023
  42 H     1.0000    0     1.008    7.382234  -10.050981   -4.786922

--------------------------------
INTERNAL COORDINATES (ANGSTROEM)
--------------------------------
 C      0   0   0     0.000000000000     0.00000000     0.00000000
 C      1   0   0     1.514958900103     0.00000000     0.00000000
 C      2   1   0     1.521288122776   109.37205050     0.00000000
 H      2   1   3     1.092456203973   109.71298181   238.75664546
 H      2   1   3     1.089608679710   108.59548356   121.21863995
 C      3   2   1     1.500727408626   110.64110074   306.30774839
 H      3   2   1     1.089668726081   111.71169503   183.97742769
 H      3   2   1     1.096120973707   109.26632303    65.86900355
 C      6   3   2     1.449051692970   120.00590137    29.26341426
 N      9   6   3     1.340908934641   119.70709475   358.61394468
 H      1   2   3     1.095147041588   110.99233837   292.68468197
 H      1   2   3     1.088012408799   111.43312296   172.70315891
 C     10   9   6     1.472175308752   121.72587838   173.94593357
 C     13  10   9     1.515182894736   111.55542681    34.35970754
 H     13  10   9     1.094790786269   107.54016761   272.38136599
 H     13  10   9     1.086801413967   107.08203210   156.61720351
 C     14  13  10     1.521673157087   109.84809822   304.23798886
 H     14  13  10     1.089487362295   108.81055982   183.02818326
 H     14  13  10     1.092194022415   109.42415454    65.56186079
 C      9   6   3     1.436263800595   120.53571361   177.75501100
 H     17  14  13     1.095776750848   109.88044404   288.92266622
 H     17  14  13     1.088973490495   110.99043012   171.39461694
 C      6   3   2     1.363804731661   121.32243759   207.77462447
 C     20   9   6     1.374654446470   117.42265054   359.55097262
 C     24  20   9     1.409792922737   122.92098781     1.36426226
 O     24  20   9     1.365649932962   117.16649910   181.04394235
 C     26  24  20     1.378967103922   123.09597715   180.83057651
 C     25  24  20     1.419574721880   118.53203751   178.91100842
 C     28  25  24     1.357787468016   121.52705226     0.23476972
 O     27  26  24     1.208197895959   116.82118620   179.90522460
 C     29  28  25     1.485100792573   122.25502636   179.83039158
 C     31  29  28     1.420880150787   119.98743868   261.87208195
 C     31  29  28     1.362480396740   119.25210499    81.12244332
 N     33  31  29     1.386702637879   120.08697341   180.02685848
 C     34  33  31     1.390848713160   120.66066225     0.71500335
 C     35  34  33     1.357943988131   119.87655568   359.69518980
 H     33  31  29     1.078136294677   123.55037296     0.74074616
 H     36  35  34     1.081241127316   118.59767484   179.97828764
 H     35  34  33     1.077822059340   116.06145991   179.68065311
 H     32  31  29     1.077533993385   121.02529716   359.74187278
 H     23   6   3     1.082556382134   119.70334068     1.95828809
 H     28  25  24     1.082982980476   118.57311769   180.25280776
 H     34  33  31     1.004427328581   119.49017998   178.95038817

---------------------------
INTERNAL COORDINATES (A.U.)
---------------------------
 C      0   0   0     0.000000000000     0.00000000     0.00000000
 C      1   0   0     2.862857425340     0.00000000     0.00000000
 C      2   1   0     2.874817922834   109.37205050     0.00000000
 H      2   1   3     2.064443038813   109.71298181   238.75664546
 H      2   1   3     2.059061997796   108.59548356   121.21863995
 C      3   2   1     2.835963803972   110.64110074   306.30774839
 H      3   2   1     2.059175468993   111.71169503   183.97742769
 H      3   2   1     2.071368449953   109.26632303    65.86900355
 C      6   3   2     2.738310853609   120.00590137    29.26341426
 N      9   6   3     2.533950657000   119.70709475   358.61394468
 H      1   2   3     2.069527984976   110.99233837   292.68468197
 H      1   2   3     2.056045482938   111.43312296   172.70315891
 C     10   9   6     2.782008154663   121.72587838   173.94593357
 C     13  10   9     2.863280713853   111.55542681    34.35970754
 H     13  10   9     2.068854759989   107.54016761   272.38136599
 H     13  10   9     2.053757034355   107.08203210   156.61720351
 C     14  13  10     2.875545532234   109.84809822   304.23798886
 H     14  13  10     2.058832741105   108.81055982   183.02818326
 H     14  13  10     2.063947587471   109.42415454    65.56186079
 C      9   6   3     2.714145239190   120.53571361   177.75501100
 H     17  14  13     2.070717963022   109.88044404   288.92266622
 H     17  14  13     2.057861664135   110.99043012   171.39461694
 C      6   3   2     2.577217442985   121.32243759   207.77462447
 C     20   9   6     2.597720432606   117.42265054   359.55097262
 C     24  20   9     2.664122529514   122.92098781     1.36426226
 O     24  20   9     2.580704368107   117.16649910   181.04394235
 C     26  24  20     2.605870174100   123.09597715   180.83057651
 C     25  24  20     2.682607450990   118.53203751   178.91100842
 C     28  25  24     2.565846462620   121.52705226     0.23476972
 O     27  26  24     2.283163138943   116.82118620   179.90522460
 C     29  28  25     2.806433779232   122.25502636   179.83039158
 C     31  29  28     2.685074354112   119.98743868   261.87208195
 C     31  29  28     2.574714812674   119.25210499    81.12244332
 N     33  31  29     2.620488214777   120.08697341   180.02685848
 C     34  33  31     2.628323161590   120.66066225     0.71500335
 C     35  34  33     2.566142242772   119.87655568   359.69518980
 H     33  31  29     2.037382331980   123.55037296     0.74074616
 H     36  35  34     2.043249615360   118.59767484   179.97828764
 H     35  34  33     2.036788513252   116.06145991   179.68065311
 H     32  31  29     2.036244147488   121.02529716   359.74187278
 H     23   6   3     2.045735086763   119.70334068     1.95828809
 H     28  25  24     2.046541240797   118.57311769   180.25280776
 H     34  33  31     1.898092572444   119.49017998   178.95038817

---------------------
BASIS SET INFORMATION
---------------------
There are 4 groups of distinct atoms

 Group   1 Type C   : 11s6p2d contracted to 5s3p2d pattern {62111/411/11}
 Group   2 Type H   : 5s1p contracted to 3s1p pattern {311/1}
 Group   3 Type N   : 11s6p2d contracted to 5s3p2d pattern {62111/411/11}
 Group   4 Type O   : 11s6p2d contracted to 5s3p2d pattern {62111/411/11}

Atom   0C    basis set group =>   1
Atom   1C    basis set group =>   1
Atom   2C    basis set group =>   1
Atom   3H    basis set group =>   2
Atom   4H    basis set group =>   2
Atom   5C    basis set group =>   1
Atom   6H    basis set group =>   2
Atom   7H    basis set group =>   2
Atom   8C    basis set group =>   1
Atom   9N    basis set group =>   3
Atom  10H    basis set group =>   2
Atom  11H    basis set group =>   2
Atom  12C    basis set group =>   1
Atom  13C    basis set group =>   1
Atom  14H    basis set group =>   2
Atom  15H    basis set group =>   2
Atom  16C    basis set group =>   1
Atom  17H    basis set group =>   2
Atom  18H    basis set group =>   2
Atom  19C    basis set group =>   1
Atom  20H    basis set group =>   2
Atom  21H    basis set group =>   2
Atom  22C    basis set group =>   1
Atom  23C    basis set group =>   1
Atom  24C    basis set group =>   1
Atom  25O    basis set group =>   4
Atom  26C    basis set group =>   1
Atom  27C    basis set group =>   1
Atom  28C    basis set group =>   1
Atom  29O    basis set group =>   4
Atom  30C    basis set group =>   1
Atom  31C    basis set group =>   1
Atom  32C    basis set group =>   1
Atom  33N    basis set group =>   3
Atom  34C    basis set group =>   1
Atom  35C    basis set group =>   1
Atom  36H    basis set group =>   2
Atom  37H    basis set group =>   2
Atom  38H    basis set group =>   2
Atom  39H    basis set group =>   2
Atom  40H    basis set group =>   2
Atom  41H    basis set group =>   2
Atom  42H    basis set group =>   2
---------------------------------
AUXILIARY/J BASIS SET INFORMATION
---------------------------------
There are 4 groups of distinct atoms

 Group   1 Type C   : 12s5p4d2f1g contracted to 6s4p3d1f1g pattern {711111/2111/211/2/1}
 Group   2 Type H   : 5s2p1d contracted to 3s1p1d pattern {311/2/1}
 Group   3 Type N   : 12s5p4d2f1g contracted to 6s4p3d1f1g pattern {711111/2111/211/2/1}
 Group   4 Type O   : 12s5p4d2f1g contracted to 6s4p3d1f1g pattern {711111/2111/211/2/1}

Atom   0C    basis set group =>   1
Atom   1C    basis set group =>   1
Atom   2C    basis set group =>   1
Atom   3H    basis set group =>   2
Atom   4H    basis set group =>   2
Atom   5C    basis set group =>   1
Atom   6H    basis set group =>   2
Atom   7H    basis set group =>   2
Atom   8C    basis set group =>   1
Atom   9N    basis set group =>   3
Atom  10H    basis set group =>   2
Atom  11H    basis set group =>   2
Atom  12C    basis set group =>   1
Atom  13C    basis set group =>   1
Atom  14H    basis set group =>   2
Atom  15H    basis set group =>   2
Atom  16C    basis set group =>   1
Atom  17H    basis set group =>   2
Atom  18H    basis set group =>   2
Atom  19C    basis set group =>   1
Atom  20H    basis set group =>   2
Atom  21H    basis set group =>   2
Atom  22C    basis set group =>   1
Atom  23C    basis set group =>   1
Atom  24C    basis set group =>   1
Atom  25O    basis set group =>   4
Atom  26C    basis set group =>   1
Atom  27C    basis set group =>   1
Atom  28C    basis set group =>   1
Atom  29O    basis set group =>   4
Atom  30C    basis set group =>   1
Atom  31C    basis set group =>   1
Atom  32C    basis set group =>   1
Atom  33N    basis set group =>   3
Atom  34C    basis set group =>   1
Atom  35C    basis set group =>   1
Atom  36H    basis set group =>   2
Atom  37H    basis set group =>   2
Atom  38H    basis set group =>   2
Atom  39H    basis set group =>   2
Atom  40H    basis set group =>   2
Atom  41H    basis set group =>   2
Atom  42H    basis set group =>   2
---------------------------------
AUXILIARY/C BASIS SET INFORMATION
---------------------------------
There are 4 groups of distinct atoms

 Group   1 Type C   : 8s6p5d3f1g contracted to 8s6p4d3f1g pattern {11111111/111111/2111/111/1}
 Group   2 Type H   : 4s3p2d contracted to 4s2p1d pattern {1111/21/2}
 Group   3 Type N   : 8s6p5d3f1g contracted to 8s6p4d3f1g pattern {11111111/111111/2111/111/1}
 Group   4 Type O   : 8s6p5d3f1g contracted to 8s6p4d3f1g pattern {11111111/111111/2111/111/1}

Atom   0C    basis set group =>   1
Atom   1C    basis set group =>   1
Atom   2C    basis set group =>   1
Atom   3H    basis set group =>   2
Atom   4H    basis set group =>   2
Atom   5C    basis set group =>   1
Atom   6H    basis set group =>   2
Atom   7H    basis set group =>   2
Atom   8C    basis set group =>   1
Atom   9N    basis set group =>   3
Atom  10H    basis set group =>   2
Atom  11H    basis set group =>   2
Atom  12C    basis set group =>   1
Atom  13C    basis set group =>   1
Atom  14H    basis set group =>   2
Atom  15H    basis set group =>   2
Atom  16C    basis set group =>   1
Atom  17H    basis set group =>   2
Atom  18H    basis set group =>   2
Atom  19C    basis set group =>   1
Atom  20H    basis set group =>   2
Atom  21H    basis set group =>   2
Atom  22C    basis set group =>   1
Atom  23C    basis set group =>   1
Atom  24C    basis set group =>   1
Atom  25O    basis set group =>   4
Atom  26C    basis set group =>   1
Atom  27C    basis set group =>   1
Atom  28C    basis set group =>   1
Atom  29O    basis set group =>   4
Atom  30C    basis set group =>   1
Atom  31C    basis set group =>   1
Atom  32C    basis set group =>   1
Atom  33N    basis set group =>   3
Atom  34C    basis set group =>   1
Atom  35C    basis set group =>   1
Atom  36H    basis set group =>   2
Atom  37H    basis set group =>   2
Atom  38H    basis set group =>   2
Atom  39H    basis set group =>   2
Atom  40H    basis set group =>   2
Atom  41H    basis set group =>   2
Atom  42H    basis set group =>   2
------------------------------------------------------------------------------
                           ORCA GTO INTEGRAL CALCULATION
                           -- RI-GTO INTEGRALS CHOSEN --
------------------------------------------------------------------------------
------------------------------------------------------------------------------
                   ___                                                        
                  /   \      - P O W E R E D   B Y -                         
                 /     \                                                     
                 |  |  |   _    _      __       _____    __    __             
                 |  |  |  | |  | |    /  \     |  _  \  |  |  /  |          
                  \  \/   | |  | |   /    \    | | | |  |  | /  /          
                 / \  \   | |__| |  /  /\  \   | |_| |  |  |/  /          
                |  |  |   |  __  | /  /__\  \  |    /   |      \           
                |  |  |   | |  | | |   __   |  |    \   |  |\   \          
                \     /   | |  | | |  |  |  |  | |\  \  |  | \   \       
                 \___/    |_|  |_| |__|  |__|  |_| \__\ |__|  \__/        
                                                                              
                      - O R C A' S   B I G   F R I E N D -                    
                                      &                                       
                       - I N T E G R A L  F E E D E R -                       
                                                                              
 v1 FN, 2020, v2 2021                                                         
------------------------------------------------------------------------------


Reading SHARK input file NMU-H_ES.SHARKINP.tmp ... ok
----------------------
SHARK INTEGRAL PACKAGE
----------------------

Number of atoms                             ...     43
Number of basis functions                   ...    690
Number of shells                            ...    316
Maximum angular momentum                    ...      2
Integral batch strategy                     ... SHARK/LIBINT Hybrid
RI-J (if used) integral strategy            ... SPLIT-RIJ (Revised 2003 algorithm where possible)
Printlevel                                  ...      1
Contraction scheme used                     ... SEGMENTED contraction
Coulomb Range Separation                    ... NOT USED
Exchange Range Separation                   ... NOT USED
Finite Nucleus Model                        ... NOT USED
Auxiliary Coulomb fitting basis             ... AVAILABLE
   # of basis functions in Aux-J            ...   1385
   # of shells in Aux-J                     ...    455
   Maximum angular momentum in Aux-J        ...      4
Auxiliary J/K fitting basis                 ... NOT available
Auxiliary Correlation fitting basis         ... AVAILABLE
   # of basis functions in Aux-C            ...   2109
   # of shells in Aux-C                     ...    661
   Maximum angular momentum in Aux-C        ...      4
Auxiliary 'external' fitting basis          ... NOT available
Integral threshold                          ...     2.500000e-11
Primitive cut-off                           ...     2.500000e-12
Primitive pair pre-selection threshold      ...     2.500000e-12

Calculating pre-screening integrals         ... done (  0.2 sec) Dimension = 316
Organizing shell pair data                  ... done (  0.4 sec)
Shell pair information
Total number of shell pairs                 ...     50086
Shell pairs after pre-screening             ...     33020
Total number of primitive shell pairs       ...    163320
Primitive shell pairs kept                  ...     70793
          la=0 lb=0:   9797 shell pairs
          la=1 lb=0:  10968 shell pairs
          la=1 lb=1:   3073 shell pairs
          la=2 lb=0:   5392 shell pairs
          la=2 lb=1:   3030 shell pairs
          la=2 lb=2:    760 shell pairs

Calculating one electron integrals          ... done (  0.2 sec)
Calculating RI/J V-Matrix + Cholesky decomp.... done (  0.3 sec)
Calculating RI/C V-Matrix + Cholesky decomp.... done (  0.6 sec)
Calculating Nuclear repulsion               ... done (  0.0 sec) ENN=   1959.826641870228 Eh

SHARK setup successfully completed in   3.2 seconds

Maximum memory used throughout the entire GTOINT-calculation: 240.3 MB
-------------------------------------------------------------------------------
                                 ORCA SCF
-------------------------------------------------------------------------------

------------
SCF SETTINGS
------------
Hamiltonian:
 Density Functional     Method          .... DFT(GTOs)
 Exchange Functional    Exchange        .... B88
   X-Alpha parameter    XAlpha          ....  0.666667
   Becke's b parameter  XBeta           ....  0.004200
 Correlation Functional Correlation     .... LYP
 LDA part of GGA corr.  LDAOpt          .... VWN-3
 Gradients option       PostSCFGGA      .... off
 Hybrid DFT is turned on
   Fraction HF Exchange ScalHFX         ....  0.200000
   Scaling of DF-GGA-X  ScalDFX         ....  0.720000
   Scaling of DF-GGA-C  ScalDFC         ....  0.810000
   Scaling of DF-LDA-C  ScalLDAC        ....  1.000000
   Perturbative correction              ....  0.000000
   Density functional embedding theory  .... OFF
   NL short-range parameter             ....  4.800000
 RI-approximation to the Coulomb term is turned on
   Number of AuxJ basis functions       .... 1385
   RIJ-COSX (HFX calculated with COS-X)).... on


General Settings:
 Integral files         IntName         .... NMU-H_ES
 Hartree-Fock type      HFTyp           .... RHF
 Total Charge           Charge          ....    1
 Multiplicity           Mult            ....    1
 Number of Electrons    NEL             ....  168
 Basis Dimension        Dim             ....  690
 Nuclear Repulsion      ENuc            ....   1959.8266418702 Eh

Convergence Acceleration:
 DIIS                   CNVDIIS         .... on
   Start iteration      DIISMaxIt       ....    12
   Startup error        DIISStart       ....  0.200000
   # of expansion vecs  DIISMaxEq       ....     5
   Bias factor          DIISBfac        ....   1.050
   Max. coefficient     DIISMaxC        ....  10.000
 Trust-Rad. Augm. Hess. CNVTRAH         .... auto
   Auto Start mean grad. ratio tolernc. ....  1.125000
   Auto Start start iteration           ....    20
   Auto Start num. interpolation iter.  ....    10
   Max. Number of Micro iterations      ....    16
   Max. Number of Macro iterations      .... Maxiter - #DIIS iter
   Number of Davidson start vectors     ....     2
   Converg. threshold I  (grad. norm)   ....   1.000e-05
   Converg. threshold II (energy diff.) ....   1.000e-08
   Grad. Scal. Fac. for Micro threshold ....   0.100
   Minimum threshold for Micro iter.    ....   0.010
   NR start threshold (gradient norm)   ....   0.001
   Initial trust radius                 ....   0.400
   Minimum AH scaling param. (alpha)    ....   1.000
   Maximum AH scaling param. (alpha)    .... 1000.000
   Orbital update algorithm             .... Taylor
   White noise on init. David. guess    .... on
   Maximum white noise                  ....   0.010
   Quad. conv. algorithm                .... NR
 SOSCF                  CNVSOSCF        .... on
   Start iteration      SOSCFMaxIt      ....   150
   Startup grad/error   SOSCFStart      ....  0.003300
 Level Shifting         CNVShift        .... on
   Level shift para.    LevelShift      ....    0.2500
   Turn off err/grad.   ShiftErr        ....    0.0010
 Zerner damping         CNVZerner       .... off
 Static damping         CNVDamp         .... on
   Fraction old density DampFac         ....    0.7000
   Max. Damping (<1)    DampMax         ....    0.9800
   Min. Damping (>=0)   DampMin         ....    0.0000
   Turn off err/grad.   DampErr         ....    0.1000
 Fernandez-Rico         CNVRico         .... off

SCF Procedure:
 Maximum # iterations   MaxIter         ....   125
 SCF integral mode      SCFMode         .... Direct
   Integral package                     .... SHARK and LIBINT hybrid scheme
 Reset frequency        DirectResetFreq ....    20
 Integral Threshold     Thresh          ....  2.500e-11 Eh
 Primitive CutOff       TCut            ....  2.500e-12 Eh

Convergence Tolerance:
 Convergence Check Mode ConvCheckMode   .... Total+1el-Energy
 Convergence forced     ConvForced      .... 1
 Energy Change          TolE            ....  1.000e-08 Eh
 1-El. energy change                    ....  1.000e-05 Eh
 Orbital Gradient       TolG            ....  1.000e-05
 Orbital Rotation angle TolX            ....  1.000e-05
 DIIS Error             TolErr          ....  5.000e-07


Diagonalization of the overlap matrix:
Smallest eigenvalue                        ... 3.618e-06
Time for diagonalization                   ...    0.075 sec
Threshold for overlap eigenvalues          ... 1.000e-08
Number of eigenvalues below threshold      ... 0
Time for construction of square roots      ...    0.107 sec
Total time needed                          ...    0.182 sec

Time for model grid setup =    1.580 sec

------------------------------
INITIAL GUESS: MODEL POTENTIAL
------------------------------
Loading Hartree-Fock densities                     ... done
Calculating cut-offs                               ... done
Initializing the effective Hamiltonian             ... done
Setting up the integral package (SHARK)            ... done
Starting the Coulomb interaction                   ... done (   3.3 sec)
Reading the grid                                   ... done
Mapping shells                                     ... done
Starting the XC term evaluation                    ... done (   1.8 sec)
  promolecular density results
     # of electrons  =    169.000625961
     EX              =   -138.212676714
     EC              =     -5.765646158
     EX+EC           =   -143.978322872
Transforming the Hamiltonian                       ... done (   0.0 sec)
Diagonalizing the Hamiltonian                      ... done (   0.1 sec)
Back transforming the eigenvectors                 ... done (   0.0 sec)
Now organizing SCF variables                       ... done
                      ------------------
                      INITIAL GUESS DONE (   6.8 sec)
                      ------------------
-------------------
DFT GRID GENERATION
-------------------

General Integration Accuracy     IntAcc      ... 4.388
Radial Grid Type                 RadialGrid  ... OptM3 with GC (2021)
Angular Grid (max. ang.)         AngularGrid ... 4 (Lebedev-302)
Angular grid pruning method      GridPruning ... 4 (adaptive)
Weight generation scheme         WeightScheme... Becke
Basis function cutoff            BFCut       ... 1.0000e-11
Integration weight cutoff        WCut        ... 1.0000e-14
Angular grids for H and He will be reduced by one unit
Partially contracted basis set               ... off
Rotationally invariant grid construction     ... off

Total number of grid points                  ...   203389
Total number of batches                      ...     3198
Average number of points per batch           ...       63
Average number of grid points per atom       ...     4730
Time for grid setup =    5.784 sec

--------------------
COSX GRID GENERATION
--------------------

GRIDX 1
-------
General Integration Accuracy     IntAcc      ... 3.816
Radial Grid Type                 RadialGrid  ... OptM3 with GC (2021)
Angular Grid (max. ang.)         AngularGrid ... 1 (Lebedev-50)
Angular grid pruning method      GridPruning ... 4 (adaptive)
Weight generation scheme         WeightScheme... Becke
Basis function cutoff            BFCut       ... 1.0000e-11
Integration weight cutoff        WCut        ... 1.0000e-14
Angular grids for H and He will be reduced by one unit
Partially contracted basis set               ... on
Rotationally invariant grid construction     ... off

Total number of grid points                  ...    25877
Total number of batches                      ...      425
Average number of points per batch           ...       60
Average number of grid points per atom       ...      602
UseSFitting                                  ... on

GRIDX 2
-------
General Integration Accuracy     IntAcc      ... 4.020
Radial Grid Type                 RadialGrid  ... OptM3 with GC (2021)
Angular Grid (max. ang.)         AngularGrid ... 2 (Lebedev-110)
Angular grid pruning method      GridPruning ... 4 (adaptive)
Weight generation scheme         WeightScheme... Becke
Basis function cutoff            BFCut       ... 1.0000e-11
Integration weight cutoff        WCut        ... 1.0000e-14
Angular grids for H and He will be reduced by one unit
Partially contracted basis set               ... on
Rotationally invariant grid construction     ... off

Total number of grid points                  ...    55976
Total number of batches                      ...      899
Average number of points per batch           ...       62
Average number of grid points per atom       ...     1302
UseSFitting                                  ... on

GRIDX 3
-------
General Integration Accuracy     IntAcc      ... 4.338
Radial Grid Type                 RadialGrid  ... OptM3 with GC (2021)
Angular Grid (max. ang.)         AngularGrid ... 3 (Lebedev-194)
Angular grid pruning method      GridPruning ... 4 (adaptive)
Weight generation scheme         WeightScheme... Becke
Basis function cutoff            BFCut       ... 1.0000e-11
Integration weight cutoff        WCut        ... 1.0000e-14
Angular grids for H and He will be reduced by one unit
Partially contracted basis set               ... on
Rotationally invariant grid construction     ... off

Total number of grid points                  ...   122362
Total number of batches                      ...     1933
Average number of points per batch           ...       63
Average number of grid points per atom       ...     2846
UseSFitting                                  ... on

Time for X-Grid setup             =    8.446 sec


--------------------
CPCM SOLVATION MODEL
--------------------
CPCM parameters:
  Epsilon                                         ...      80.4000
  Refrac                                          ...       1.3300
  Rsolv                                           ...       1.3000
  Surface type                                    ... GAUSSIAN VDW
  Epsilon function type                           ...         CPCM
Radii:
 Radius for C  used is    3.8550 Bohr (=   2.0400 Ang.)
 Radius for H  used is    2.4944 Bohr (=   1.3200 Ang.)
 Radius for N  used is    3.5149 Bohr (=   1.8600 Ang.)
 Radius for O  used is    3.4469 Bohr (=   1.8240 Ang.)
Calculating surface                               ...        done! (  0.0s)
GEPOL surface points                              ...         2245
GEPOL Volume                                      ...    2465.9737
GEPOL Surface-area                                ...    1234.6431
Calculating surface distance matrix               ...        done! (  0.0s)
Performing Cholesky decomposition & store         ...        done! (  0.4s)
Overall time for CPCM initialization              ...                 0.4s
--------------
SCF ITERATIONS
--------------
ITER       Energy         Delta-E        Max-DP      RMS-DP      [F,P]     Damp
               ***  Starting incremental Fock matrix formation  ***
  0  -1033.2661630911   0.000000000000 0.12640639  0.00109483  0.3096609 0.7000
  1  -1033.4914481863  -0.225285095167 0.11885655  0.00085692  0.1192581 0.7000
                               ***Turning on DIIS***
  2  -1033.5849160394  -0.093467853038 0.12062149  0.00138022  0.0389401 0.0000
  3  -1033.7333028714  -0.148386832045 0.10773866  0.00065145  0.0502963 0.0000
  4  -1033.7627759500  -0.029473078630 0.01340488  0.00017476  0.0191075 0.0000
  5  -1033.7646589281  -0.001882978112 0.01582293  0.00009787  0.0117697 0.0000
                      *** Initiating the SOSCF procedure ***
                           *** Shutting down DIIS ***
                      *** Re-Reading the Fockian *** 
                      *** Removing any level shift *** 
ITER      Energy       Delta-E        Grad      Rot      Max-DP    RMS-DP
  6  -1033.76487909  -0.0002201630  0.000258  0.000258  0.002925  0.000034
               *** Restarting incremental Fock matrix formation ***
  7  -1033.76488641  -0.0000073229  0.000194  0.001174  0.001822  0.000029
  8  -1033.76488544   0.0000009723  0.000193  0.000414  0.000508  0.000008
  9  -1033.76488920  -0.0000037607  0.000032  0.000155  0.000433  0.000006
 10  -1033.76488911   0.0000000882  0.000028  0.000068  0.000209  0.000002
 11  -1033.76488929  -0.0000001747  0.000006  0.000028  0.000221  0.000002
 12  -1033.76488929   0.0000000022  0.000006  0.000009  0.000091  0.000001
                  ***Gradient check signals convergence***
              ***Rediagonalizing the Fockian in SOSCF/NRSCF***

               *****************************************************
               *                     SUCCESS                       *
               *           SCF CONVERGED AFTER  13 CYCLES          *
               *****************************************************

Old exchange energy                            =    -28.020585308 Eh
New exchange energy                            =    -28.020583298 Eh
Exchange energy change after final integration =      0.000002009 Eh
Total energy after final integration           =  -1033.764887270 Eh
Final COS-X integration done in                =   172.735 sec

----------------
TOTAL SCF ENERGY
----------------

Total Energy       :        -1033.76488727 Eh          -28130.17269 eV

Components:
Nuclear Repulsion  :         1959.82664187 Eh           53329.59415 eV
Electronic Energy  :        -2993.59152914 Eh          -81459.76684 eV
One Electron Energy:        -5277.22626513 Eh         -143600.62719 eV
Two Electron Energy:         2283.63473599 Eh           62140.86035 eV
Max COSX asymmetry :            0.00000236 Eh               0.00006 eV
CPCM Dielectric    :           -0.09625895 Eh              -2.61934 eV

Virial components:
Potential Energy   :        -2062.31808472 Eh          -56118.52810 eV
Kinetic Energy     :         1028.55319745 Eh           27988.35540 eV
Virial Ratio       :            2.00506701


DFT components:
N(Alpha)           :       84.000053438868 electrons
N(Beta)            :       84.000053438868 electrons
N(Total)           :      168.000106877737 electrons
E(X)               :     -111.356358897038 Eh       
E(C)               :       -7.374482041596 Eh       
E(XC)              :     -118.730840938634 Eh       
DFET-embed. en.    :        0.000000000000 Eh       
CPCM Solvation Model Properties:
Surface-charge          :           -1.03158307
Charge-correction       :            0.00277633 Eh               0.07555 eV
Free-energy (cav+disp)  :  This term is not implemented in the current solvation scheme

---------------
SCF CONVERGENCE
---------------

  Last Energy change         ...    7.1498e-09  Tolerance :   1.0000e-08
  Last MAX-Density change    ...    2.1094e-15  Tolerance :   1.0000e-07
  Last RMS-Density change    ...    1.7153e-17  Tolerance :   5.0000e-09
  Last Orbital Gradient      ...    1.8142e-06  Tolerance :   1.0000e-05
  Last Orbital Rotation      ...    1.0613e-05  Tolerance :   1.0000e-05

             **** THE GBW FILE WAS UPDATED (NMU-H_ES.gbw) ****
             **** DENSITY NMU-H_ES.scfp WAS UPDATED ****
             **** ENERGY FILE WAS UPDATED (NMU-H_ES.en.tmp) ****
             **** THE GBW FILE WAS UPDATED (NMU-H_ES.gbw) ****
             **** DENSITY NMU-H_ES.scfp WAS UPDATED ****
----------------
ORBITAL ENERGIES
----------------

  NO   OCC          E(Eh)            E(eV) 
   0   2.0000     -19.199404      -522.4423 
   1   2.0000     -19.117977      -520.2266 
   2   2.0000     -14.439389      -392.9157 
   3   2.0000     -14.348106      -390.4318 
   4   2.0000     -10.313688      -280.6497 
   5   2.0000     -10.271333      -279.4972 
   6   2.0000     -10.271224      -279.4942 
   7   2.0000     -10.248227      -278.8684 
   8   2.0000     -10.242892      -278.7233 
   9   2.0000     -10.236360      -278.5455 
  10   2.0000     -10.232718      -278.4464 
  11   2.0000     -10.224092      -278.2117 
  12   2.0000     -10.208215      -277.7797 
  13   2.0000     -10.204985      -277.6918 
  14   2.0000     -10.204377      -277.6752 
  15   2.0000     -10.201034      -277.5842 
  16   2.0000     -10.185589      -277.1640 
  17   2.0000     -10.182466      -277.0790 
  18   2.0000     -10.182459      -277.0788 
  19   2.0000     -10.180393      -277.0226 
  20   2.0000     -10.174450      -276.8609 
  21   2.0000     -10.172846      -276.8172 
  22   2.0000     -10.171161      -276.7713 
  23   2.0000     -10.171070      -276.7689 
  24   2.0000      -1.128328       -30.7034 
  25   2.0000      -1.042815       -28.3764 
  26   2.0000      -1.024505       -27.8782 
  27   2.0000      -0.973374       -26.4869 
  28   2.0000      -0.879617       -23.9356 
  29   2.0000      -0.865149       -23.5419 
  30   2.0000      -0.839545       -22.8452 
  31   2.0000      -0.831419       -22.6241 
  32   2.0000      -0.813487       -22.1361 
  33   2.0000      -0.781563       -21.2674 
  34   2.0000      -0.768557       -20.9135 
  35   2.0000      -0.760890       -20.7049 
  36   2.0000      -0.704713       -19.1762 
  37   2.0000      -0.700138       -19.0517 
  38   2.0000      -0.692839       -18.8531 
  39   2.0000      -0.669576       -18.2201 
  40   2.0000      -0.658931       -17.9304 
  41   2.0000      -0.639756       -17.4086 
  42   2.0000      -0.632034       -17.1985 
  43   2.0000      -0.618948       -16.8424 
  44   2.0000      -0.598648       -16.2900 
  45   2.0000      -0.566011       -15.4020 
  46   2.0000      -0.544076       -14.8051 
  47   2.0000      -0.542765       -14.7694 
  48   2.0000      -0.537861       -14.6360 
  49   2.0000      -0.531518       -14.4633 
  50   2.0000      -0.518859       -14.1189 
  51   2.0000      -0.498660       -13.5692 
  52   2.0000      -0.489668       -13.3245 
  53   2.0000      -0.484362       -13.1802 
  54   2.0000      -0.478769       -13.0280 
  55   2.0000      -0.474433       -12.9100 
  56   2.0000      -0.466640       -12.6979 
  57   2.0000      -0.462730       -12.5915 
  58   2.0000      -0.458662       -12.4808 
  59   2.0000      -0.447087       -12.1658 
  60   2.0000      -0.444721       -12.1015 
  61   2.0000      -0.436563       -11.8795 
  62   2.0000      -0.431603       -11.7445 
  63   2.0000      -0.423241       -11.5170 
  64   2.0000      -0.421199       -11.4614 
  65   2.0000      -0.412161       -11.2155 
  66   2.0000      -0.410205       -11.1622 
  67   2.0000      -0.405896       -11.0450 
  68   2.0000      -0.397582       -10.8188 
  69   2.0000      -0.381983       -10.3943 
  70   2.0000      -0.369318       -10.0497 
  71   2.0000      -0.362184        -9.8555 
  72   2.0000      -0.354983        -9.6596 
  73   2.0000      -0.346333        -9.4242 
  74   2.0000      -0.345068        -9.3898 
  75   2.0000      -0.341033        -9.2800 
  76   2.0000      -0.338039        -9.1985 
  77   2.0000      -0.324712        -8.8359 
  78   2.0000      -0.320548        -8.7226 
  79   2.0000      -0.315067        -8.5734 
  80   2.0000      -0.297442        -8.0938 
  81   2.0000      -0.276999        -7.5375 
  82   2.0000      -0.243074        -6.6144 
  83   2.0000      -0.193964        -5.2780 
  84   0.0000      -0.108248        -2.9456 
  85   0.0000      -0.064877        -1.7654 
  86   0.0000      -0.056157        -1.5281 
  87   0.0000      -0.012519        -0.3407 
  88   0.0000      -0.000968        -0.0264 
  89   0.0000       0.026634         0.7248 
  90   0.0000       0.032887         0.8949 
  91   0.0000       0.047810         1.3010 
  92   0.0000       0.058495         1.5917 
  93   0.0000       0.061013         1.6602 
  94   0.0000       0.062341         1.6964 
  95   0.0000       0.067242         1.8298 
  96   0.0000       0.072817         1.9815 
  97   0.0000       0.074237         2.0201 
  98   0.0000       0.077485         2.1085 
  99   0.0000       0.082038         2.2324 
 100   0.0000       0.086894         2.3645 
 101   0.0000       0.089579         2.4376 
 102   0.0000       0.093408         2.5418 
 103   0.0000       0.099306         2.7023 
 104   0.0000       0.100427         2.7328 
 105   0.0000       0.104871         2.8537 
 106   0.0000       0.114862         3.1256 
 107   0.0000       0.118136         3.2146 
 108   0.0000       0.122206         3.3254 
 109   0.0000       0.124854         3.3975 
 110   0.0000       0.136868         3.7244 
 111   0.0000       0.138130         3.7587 
 112   0.0000       0.144147         3.9224 
 113   0.0000       0.150490         4.0950 
 114   0.0000       0.150848         4.1048 
 115   0.0000       0.157450         4.2844 
 116   0.0000       0.165444         4.5020 
 117   0.0000       0.167814         4.5665 
 118   0.0000       0.173720         4.7272 
 119   0.0000       0.176907         4.8139 
 120   0.0000       0.177506         4.8302 
 121   0.0000       0.182330         4.9615 
 122   0.0000       0.184675         5.0253 
 123   0.0000       0.187062         5.0902 
 124   0.0000       0.193045         5.2530 
 125   0.0000       0.196591         5.3495 
 126   0.0000       0.200943         5.4679 
 127   0.0000       0.202156         5.5009 
 128   0.0000       0.204300         5.5593 
 129   0.0000       0.207839         5.6556 
 130   0.0000       0.214583         5.8391 
 131   0.0000       0.218936         5.9576 
 132   0.0000       0.220907         6.0112 
 133   0.0000       0.225190         6.1277 
 134   0.0000       0.227457         6.1894 
 135   0.0000       0.235957         6.4207 
 136   0.0000       0.237580         6.4649 
 137   0.0000       0.240949         6.5566 
 138   0.0000       0.246242         6.7006 
 139   0.0000       0.253310         6.8929 
 140   0.0000       0.256510         6.9800 
 141   0.0000       0.262027         7.1301 
 142   0.0000       0.264779         7.2050 
 143   0.0000       0.270792         7.3686 
 144   0.0000       0.273541         7.4434 
 145   0.0000       0.277755         7.5581 
 146   0.0000       0.284599         7.7443 
 147   0.0000       0.288275         7.8444 
 148   0.0000       0.290788         7.9127 
 149   0.0000       0.296307         8.0629 
 150   0.0000       0.301276         8.1981 
 151   0.0000       0.309076         8.4104 
 152   0.0000       0.313060         8.5188 
 153   0.0000       0.317599         8.6423 
 154   0.0000       0.319585         8.6964 
 155   0.0000       0.328448         8.9375 
 156   0.0000       0.331901         9.0315 
 157   0.0000       0.334778         9.1098 
 158   0.0000       0.337875         9.1940 
 159   0.0000       0.346170         9.4198 
 160   0.0000       0.347046         9.4436 
 161   0.0000       0.351936         9.5767 
 162   0.0000       0.352908         9.6031 
 163   0.0000       0.361681         9.8419 
 164   0.0000       0.365828         9.9547 
 165   0.0000       0.370134        10.0719 
 166   0.0000       0.371649        10.1131 
 167   0.0000       0.380987        10.3672 
 168   0.0000       0.387607        10.5473 
 169   0.0000       0.396561        10.7910 
 170   0.0000       0.401178        10.9166 
 171   0.0000       0.406038        11.0489 
 172   0.0000       0.406625        11.0648 
 173   0.0000       0.410280        11.1643 
 174   0.0000       0.413831        11.2609 
 175   0.0000       0.415515        11.3067 
 176   0.0000       0.419563        11.4169 
 177   0.0000       0.423385        11.5209 
 178   0.0000       0.427754        11.6398 
 179   0.0000       0.430980        11.7276 
 180   0.0000       0.433014        11.7829 
 181   0.0000       0.437515        11.9054 
 182   0.0000       0.438532        11.9331 
 183   0.0000       0.440893        11.9973 
 184   0.0000       0.443504        12.0684 
 185   0.0000       0.447944        12.1892 
 186   0.0000       0.451195        12.2777 
 187   0.0000       0.454021        12.3545 
 188   0.0000       0.456993        12.4354 
 189   0.0000       0.459146        12.4940 
 190   0.0000       0.461778        12.5656 
 191   0.0000       0.465591        12.6694 
 192   0.0000       0.466702        12.6996 
 193   0.0000       0.471240        12.8231 
 194   0.0000       0.476328        12.9615 
 195   0.0000       0.479600        13.0506 
 196   0.0000       0.483970        13.1695 
 197   0.0000       0.486941        13.2503 
 198   0.0000       0.493910        13.4400 
 199   0.0000       0.496628        13.5139 
 200   0.0000       0.503458        13.6998 
 201   0.0000       0.504884        13.7386 
 202   0.0000       0.507720        13.8158 
 203   0.0000       0.513665        13.9775 
 204   0.0000       0.518796        14.1171 
 205   0.0000       0.522387        14.2149 
 206   0.0000       0.526265        14.3204 
 207   0.0000       0.534095        14.5335 
 208   0.0000       0.546901        14.8819 
 209   0.0000       0.553928        15.0731 
 210   0.0000       0.558774        15.2050 
 211   0.0000       0.565826        15.3969 
 212   0.0000       0.568708        15.4753 
 213   0.0000       0.572369        15.5750 
 214   0.0000       0.586550        15.9608 
 215   0.0000       0.590468        16.0674 
 216   0.0000       0.591586        16.0979 
 217   0.0000       0.597155        16.2494 
 218   0.0000       0.606427        16.5017 
 219   0.0000       0.608017        16.5450 
 220   0.0000       0.614131        16.7114 
 221   0.0000       0.618085        16.8189 
 222   0.0000       0.631131        17.1739 
 223   0.0000       0.635376        17.2895 
 224   0.0000       0.638209        17.3666 
 225   0.0000       0.644419        17.5355 
 226   0.0000       0.649885        17.6843 
[...]
 34 C      5.9130     6.0000     0.0870     3.9429     3.9429     0.0000
 35 C      6.0278     6.0000    -0.0278     3.9220     3.9220    -0.0000
 36 H      0.8087     1.0000     0.1913     0.9645     0.9645    -0.0000
 37 H      0.8437     1.0000     0.1563     0.9607     0.9607    -0.0000
 38 H      0.8090     1.0000     0.1910     0.9556     0.9556     0.0000
 39 H      0.8311     1.0000     0.1689     0.9593     0.9593     0.0000
 40 H      0.9104     1.0000     0.0896     0.9894     0.9894    -0.0000
 41 H      0.8696     1.0000     0.1304     0.9767     0.9767    -0.0000
 42 H      0.7349     1.0000     0.2651     0.9282     0.9282     0.0000

  Mayer bond orders larger than 0.100000
B(  0-C ,  1-C ) :   1.0096 B(  0-C ,  9-N ) :   0.9330 B(  0-C , 10-H ) :   0.9511 
B(  0-C , 11-H ) :   0.9508 B(  1-C ,  2-C ) :   1.0165 B(  1-C ,  3-H ) :   0.9683 
B(  1-C ,  4-H ) :   0.9593 B(  2-C ,  5-C ) :   0.9944 B(  2-C ,  6-H ) :   0.9559 
B(  2-C ,  7-H ) :   0.9468 B(  5-C ,  8-C ) :   1.2268 B(  5-C , 22-C ) :   1.4003 
B(  8-C ,  9-N ) :   1.3989 B(  8-C , 19-C ) :   1.2295 B(  9-N , 12-C ) :   0.9344 
B( 12-C , 13-C ) :   0.9988 B( 12-C , 14-H ) :   0.9521 B( 12-C , 15-H ) :   0.9531 
B( 13-C , 16-C ) :   1.0344 B( 13-C , 17-H ) :   0.9622 B( 13-C , 18-H ) :   0.9668 
B( 16-C , 19-C ) :   1.0340 B( 16-C , 20-H ) :   0.9560 B( 16-C , 21-H ) :   0.9474 
B( 19-C , 23-C ) :   1.3572 B( 22-C , 24-C ) :   1.0988 B( 22-C , 40-H ) :   1.0535 
B( 23-C , 24-C ) :   1.3412 B( 23-C , 25-O ) :   1.0195 B( 24-C , 27-C ) :   1.1189 
B( 25-O , 26-C ) :   1.0901 B( 26-C , 28-C ) :   1.1081 B( 26-C , 29-O ) :   1.9634 
B( 27-C , 28-C ) :   1.4877 B( 27-C , 41-H ) :   0.9915 B( 28-C , 30-C ) :   0.9068 
B( 30-C , 31-C ) :   1.3954 B( 30-C , 32-C ) :   1.4801 B( 31-C , 33-N ) :   0.1132 
B( 31-C , 35-C ) :   1.3925 B( 31-C , 39-H ) :   0.9516 B( 32-C , 33-N ) :   1.3081 
B( 32-C , 36-H ) :   0.9265 B( 33-N , 34-C ) :   1.2959 B( 33-N , 42-H ) :   0.8947 
B( 34-C , 35-C ) :   1.4998 B( 34-C , 38-H ) :   0.9314 B( 35-C , 37-H ) :   0.9500 


Environment variable NBOEXE for nbo6.exe or nbo5.exe not set! Skipping NBO-Analysis

-------
TIMINGS
-------

Total SCF time: 0 days 0 hours 10 min 11 sec 

Total time                  ....     611.147 sec
Sum of individual times     ....     608.187 sec  ( 99.5%)

Fock matrix formation       ....     593.859 sec  ( 97.2%)
  Split-RI-J                ....      34.946 sec  (  5.9% of F)
  Chain of spheres X        ....     491.560 sec  ( 82.8% of F)
  XC integration            ....      24.465 sec  (  4.1% of F)
    Basis function eval.    ....       7.385 sec  ( 30.2% of XC)
    Density eval.           ....       9.114 sec  ( 37.3% of XC)
    XC-Functional eval.     ....       0.710 sec  (  2.9% of XC)
    XC-Potential eval.      ....       5.808 sec  ( 23.7% of XC)
Diagonalization             ....       0.125 sec  (  0.0%)
Density matrix formation    ....       0.059 sec  (  0.0%)
Population analysis         ....       0.196 sec  (  0.0%)
Initial guess               ....       0.136 sec  (  0.0%)
Orbital Transformation      ....       0.000 sec  (  0.0%)
Orbital Orthonormalization  ....       0.119 sec  (  0.0%)
DIIS solution               ....       0.038 sec  (  0.0%)
SOSCF solution              ....       0.361 sec  (  0.1%)
Grid generation             ....      13.413 sec  (  2.2%)

Maximum memory used throughout the entire SCF-calculation: 357.5 MB
------------------------------------------------------------------------------
                        ORCA TD-DFT/TDA CALCULATION
------------------------------------------------------------------------------

Input orbitals are from        ... NMU-H_ES.gbw
CI-vector output               ... NMU-H_ES.cis
Tamm-Dancoff approximation     ... operative
CIS-Integral strategy          ... AO-integrals
Integral handling              ... AO integral Direct
Max. core memory used          ... 3000 MB
Reference state                ... RHF
Generation of triplets         ... off
Follow IRoot                   ... off
Number of operators            ... 1
Orbital ranges used for CIS calculation:
 Operator 0:  Orbitals  24... 83  to  84...689
XAS localization array:
 Operator 0:  Orbitals  -1... -1

-------------------
XC-INTEGRATION GRID
-------------------

General Integration Accuracy     IntAcc      ... 3.467
Radial Grid Type                 RadialGrid  ... OptM3 with GC (2021)
Angular Grid (max. ang.)         AngularGrid ... 1 (Lebedev-50)
Angular grid pruning method      GridPruning ... 4 (adaptive)
Weight generation scheme         WeightScheme... Becke
Basis function cutoff            BFCut       ... 1.0000e-11
Integration weight cutoff        WCut        ... 1.0000e-14
Angular grids for H and He will be reduced by one unit
Partially contracted basis set               ... off
Rotationally invariant grid construction     ... off

Total number of grid points                  ...    29620
Total number of batches                      ...      482
Average number of points per batch           ...       61
Average number of grid points per atom       ...      689

---------------------
COSX-INTEGRATION GRID
---------------------

General Integration Accuracy     IntAcc      ... 3.067
Radial Grid Type                 RadialGrid  ... OptM3 with GC (2021)
Angular Grid (max. ang.)         AngularGrid ... 1 (Lebedev-50)
Angular grid pruning method      GridPruning ... 4 (adaptive)
Weight generation scheme         WeightScheme... Becke
Basis function cutoff            BFCut       ... 1.0000e-11
Integration weight cutoff        WCut        ... 1.0000e-14
Angular grids for H and He will be reduced by one unit
Partially contracted basis set               ... on
Rotationally invariant grid construction     ... off

Total number of grid points                  ...    13727
Total number of batches                      ...      239
Average number of points per batch           ...       57
Average number of grid points per atom       ...      319

---------------
TD-DFT XC SETUP
---------------

DFT calculation                         ... on
Name of the grid file                   ... NMU-H_ES.grid_cis.tmp
Exchange functional (TD-DFT)            ... B88
   X-Alpha parameter    XAlpha (TD-DFT) ...  0.666667
   Becke's b parameter  XBeta (TD-DFT)  ...  0.004200
Correlation functional (TD-DFT)         ... LYP
 LDA part of GGA corr.  LDAOpt (TD-DFT) ... VWN-3
Hybrid DFT                              ... on
   Exchange mixing (TD-DFT)             ...  0.200
   GGA exch. scaling (TD-DFT)           ...  0.720
   GGA corr. scaling (TD-DFT)           ...  0.810

Building densities             ... done
Calculating rho(r) on the grid ... done
Building xc-kernel on the grid ... done
                    *** TD-DFT CALCULATION INITIALIZED ***

-----------------------------
    LR-CPCM (equilibrium)
-----------------------------

Setting up LR-CPCM             ... done

------------------------
DAVIDSON-DIAGONALIZATION
------------------------

Dimension of the eigenvalue problem            ...  36360
Number of roots to be determined               ...      3
Maximum size of the expansion space            ...     30
Maximum number of iterations                   ...    100
Convergence tolerance for the residual         ...    2.500e-07
Convergence tolerance for the energies         ...    2.500e-07
Orthogonality tolerance                        ...    1.000e-14
Level Shift                                    ...    0.000e+00
Constructing the preconditioner                ... o.k.
Building the initial guess                     ... o.k.
Number of trial vectors determined             ...     30


                       ****Iteration    0****

   Memory handling for direct AO based CIS:
   Memory per vector needed      ...    21 MB
   Memory needed                 ...   196 MB
   Memory available              ...  3000 MB
   Number of vectors per batch   ...   137
   Number of batches             ...     1
   Time for densities:            0.046
   Time for RI-J (Direct):       13.391
   Time for K (COSX):            41.821
   Time for XC-Integration:      14.012
   Time for LR-CPCM terms:       17.706
   Time for Sigma-Completion:     0.132
   Size of expansion space: 9
   Lowest Energy          :     0.068041493360
   Maximum Energy change  :     0.119166387196 (vector 2)
   Maximum residual norm  :     0.000422084306

                       ****Iteration    1****
   Time for densities:            0.016
   Time for RI-J (Direct):        9.227
   Time for K (COSX):            25.832
   Time for XC-Integration:       4.100
   Time for LR-CPCM terms:       11.573
   Time for Sigma-Completion:     0.042
   Size of expansion space: 12
   Lowest Energy          :     0.067588737516
   Maximum Energy change  :     0.000841306794 (vector 2)
   Maximum residual norm  :     0.000110551877

                       ****Iteration    2****
   Time for densities:            0.016
   Time for RI-J (Direct):        9.291
   Time for K (COSX):            25.690
   Time for XC-Integration:       4.066
   Time for LR-CPCM terms:       11.614
   Time for Sigma-Completion:     0.043
   Size of expansion space: 15
   Lowest Energy          :     0.067550836687
   Maximum Energy change  :     0.000261805206 (vector 1)
   Maximum residual norm  :     0.000157553854

                       ****Iteration    3****
   Time for densities:            0.017
   Time for RI-J (Direct):        9.282
   Time for K (COSX):            25.676
   Time for XC-Integration:       4.102
   Time for LR-CPCM terms:       11.928
   Time for Sigma-Completion:     0.048
   Size of expansion space: 18
   Lowest Energy          :     0.067548714846
   Maximum Energy change  :     0.000543762460 (vector 1)
   Maximum residual norm  :     0.000095500038

                       ****Iteration    4****
   Time for densities:            0.016
   Time for RI-J (Direct):        9.076
   Time for K (COSX):            25.772
   Time for XC-Integration:       4.085
   Time for LR-CPCM terms:       11.898
   Time for Sigma-Completion:     0.043
   Size of expansion space: 21
   Lowest Energy          :     0.067548571352
   Maximum Energy change  :     0.000161603069 (vector 1)
   Maximum residual norm  :     0.000008478785

                       ****Iteration    5****
   Time for densities:            0.016
   Time for RI-J (Direct):        8.751
   Time for K (COSX):            25.883
   Time for XC-Integration:       4.135
   Time for LR-CPCM terms:       11.926
   Time for Sigma-Completion:     0.045
   Size of expansion space: 24
   Lowest Energy          :     0.067548565188
   Maximum Energy change  :     0.000009619965 (vector 1)
   Maximum residual norm  :     0.000000552465

                       ****Iteration    6****
   Time for densities:            0.016
   Time for RI-J (Direct):        8.805
   Time for K (COSX):            26.782
   Time for XC-Integration:       4.178
   Time for LR-CPCM terms:       11.898
   Time for Sigma-Completion:     0.042
   Size of expansion space: 27
   Lowest Energy          :     0.067548564779
   Maximum Energy change  :     0.000000624989 (vector 1)
   Maximum residual norm  :     0.000000054789

      *** CONVERGENCE OF RESIDUAL NORM REACHED ***

Storing the converged CI vectors               ... NMU-H_ES.cis1

                 *** DAVIDSON DONE ***

Total time for solving the CIS problem:   394.734sec

------------------------------------
TD-DFT/TDA EXCITED STATES (SINGLETS)
------------------------------------

the weight of the individual excitations are printed if larger than 1.0e-02

STATE  1:  E=   0.067549 au      1.838 eV    14825.2 cm**-1 <S**2> =   0.000000
    83a ->  84a  :     0.992061 (c=  0.99602266)

STATE  2:  E=   0.116638 au      3.174 eV    25599.1 cm**-1 <S**2> =   0.000000
    82a ->  84a  :     0.198780 (c= -0.44584774)
    83a ->  85a  :     0.713446 (c=  0.84465729)
    83a ->  86a  :     0.053977 (c=  0.23233014)

STATE  3:  E=   0.117976 au      3.210 eV    25892.8 cm**-1 <S**2> =   0.000000
    82a ->  84a  :     0.742688 (c= -0.86179354)
    83a ->  85a  :     0.118582 (c= -0.34435673)
    83a ->  86a  :     0.131910 (c= -0.36319464)


-----------------------------
TD-DFT/TDA-EXCITATION SPECTRA
-----------------------------

Center of mass = ( -2.7270, -4.9173, -0.1233)
Calculating the Dipole integrals                  ... done
Transforming integrals                            ... done
Calculating the Linear Momentum integrals         ... done
Transforming integrals                            ... done
Calculating angular momentum integrals            ... done
Transforming integrals                            ... done

-----------------------------------------------------------------------------
         ABSORPTION SPECTRUM VIA TRANSITION ELECTRIC DIPOLE MOMENTS
-----------------------------------------------------------------------------
State   Energy    Wavelength  fosc         T2        TX        TY        TZ  
        (cm-1)      (nm)                 (au**2)    (au)      (au)      (au) 
-----------------------------------------------------------------------------
   1   14825.2    674.5   0.016156479   0.35877   0.57061  -0.18018   0.02665
   2   25599.1    390.6   0.672120039   8.64367   2.86218  -0.66904  -0.06331
   3   25892.8    386.2   0.079865074   1.01544  -0.99653   0.14953  -0.00199

-----------------------------------------------------------------------------
         ABSORPTION SPECTRUM VIA TRANSITION VELOCITY DIPOLE MOMENTS
-----------------------------------------------------------------------------
State   Energy    Wavelength   fosc        P2         PX        PY        PZ  
        (cm-1)      (nm)                 (au**2)     (au)      (au)      (au) 
-----------------------------------------------------------------------------
   1   14825.2    674.5   0.006815988   0.00069  -0.02584   0.00199   0.00438
   2   25599.1    390.6   0.331475776   0.05799  -0.22781   0.07759   0.00865
   3   25892.8    386.2   0.032951130   0.00583   0.07458  -0.01629  -0.00196

-------------------------------------------------------------------
                             CD SPECTRUM
-------------------------------------------------------------------
State  Energy     Wavelength     R         MX        MY        MZ   
       (cm-1)       (nm)     (1e40*cgs)   (au)      (au)      (au)  
-------------------------------------------------------------------
   1   14825.2    674.5     -5.16514  -0.02854  -0.01534   0.09630
   2   25599.1    390.6     18.16184   0.00164  -0.08320   0.34483
   3   25892.8    386.2      3.84861   0.00042   0.05474  -0.20180

-------------------------------------------------------------------
         CD SPECTRUM VIA TRANSITION VELOCITY DIPOLE MOMENTS        
-------------------------------------------------------------------
State  Energy     Wavelength     R         MX        MY        MZ   
       (cm-1)       (nm)     (1e40*cgs)   (au)      (au)      (au)  
-------------------------------------------------------------------
   1   14825.2    674.5     -7.87472  -0.02854  -0.01534   0.09630
   2   25599.1    390.6     15.55153   0.00164  -0.08320   0.34483
   3   25892.8    386.2      1.85480   0.00042   0.05474  -0.20180

Total run time:      399.040 sec

           *** ORCA-CIS/TD-DFT FINISHED WITHOUT ERROR ***

Maximum memory used throughout the entire CIS-calculation: 431.3 MB

-----------------------
CIS/TD-DFT TOTAL ENERGY
-----------------------

    E(SCF)  =  -1033.764888785 Eh
    DE(CIS) =      0.067548565 Eh (Root  1)
    ----------------------------- ---------
    E(tot)  =  -1033.697340221 Eh


-------------------------   --------------------
FINAL SINGLE POINT ENERGY     -1033.697340220612
-------------------------   --------------------

                                *** OPTIMIZATION RUN DONE ***

                            ***************************************
                            *     ORCA property calculations      *
                            ***************************************

                                    ---------------------
                                    Active property flags
                                    ---------------------
   (+) Dipole Moment


------------------------------------------------------------------------------
                       ORCA ELECTRIC PROPERTIES CALCULATION
------------------------------------------------------------------------------

Dipole Moment Calculation                       ... on
Quadrupole Moment Calculation                   ... off
Polarizability Calculation                      ... off
GBWName                                         ... NMU-H_ES.gbw
Electron density                                ... NMU-H_ES.scfp
The origin for moment calculation is the CENTER OF MASS  = (-2.727043, -4.917336 -0.123287)

-------------
DIPOLE MOMENT
-------------
                                X             Y             Z
Electronic contribution:     24.97460      -7.62566      -0.71836
Nuclear contribution   :    -21.27317       2.79300      -1.04367
                        -----------------------------------------
Total Dipole Moment    :      3.70143      -4.83266      -1.76203
                        -----------------------------------------
Magnitude (a.u.)       :      6.33718
Magnitude (Debye)      :     16.10784



--------------------
Rotational spectrum 
--------------------
 
Rotational constants in cm-1:     0.021241     0.003864     0.003411 
Rotational constants in MHz :   636.791889   115.845556   102.261387 

 Dipole components along the rotational axes: 
x,y,z [a.u.] :     5.325374    -3.343045     0.790149 
x,y,z [Debye]:    13.536026    -8.497344     2.008400 

 

                        *** CIS RELAXED DENSITY ***

------------------------------------------------------------------------------
                       ORCA ELECTRIC PROPERTIES CALCULATION
------------------------------------------------------------------------------

Dipole Moment Calculation                       ... on
Quadrupole Moment Calculation                   ... off
Polarizability Calculation                      ... off
GBWName                                         ... NMU-H_ES.gbw
Electron density                                ... NMU-H_ES.cisp
The origin for moment calculation is the CENTER OF MASS  = (-2.727043, -4.917336 -0.123287)

-------------
DIPOLE MOMENT
-------------
                                X             Y             Z
Electronic contribution:     14.93721      -2.73414      -0.10337
Nuclear contribution   :    -21.27317       2.79300      -1.04367
                        -----------------------------------------
Total Dipole Moment    :     -6.33596       0.05887      -1.14704
                        -----------------------------------------
Magnitude (a.u.)       :      6.43922
Magnitude (Debye)      :     16.36721



--------------------
Rotational spectrum 
--------------------
 
Rotational constants in cm-1:     0.021241     0.003864     0.003411 
Rotational constants in MHz :   636.791889   115.845556   102.261387 

 Dipole components along the rotational axes: 
x,y,z [a.u.] :    -5.833714    -2.615938     0.766988 
x,y,z [Debye]:   -14.828122    -6.649186     1.949528 

 

Timings for individual modules:

Sum of individual times         ...     4159.981 sec (=  69.333 min)
GTO integral calculation        ...        6.234 sec (=   0.104 min)   0.1 %
SCF iterations                  ...     1829.257 sec (=  30.488 min)  44.0 %
CIS module                      ...      803.830 sec (=  13.397 min)  19.3 %
SCF Gradient evaluation         ...     1520.462 sec (=  25.341 min)  36.5 %
Geometry relaxation             ...        0.198 sec (=   0.003 min)   0.0 %
                             ****ORCA TERMINATED NORMALLY****
TOTAL RUN TIME: 0 days 1 hours 9 minutes 22 seconds 46 msec
