
                                 *****************
                                 * O   R   C   A *
                                 *****************

                                            #,                                       
                                            ###                                      
                                            ####                                     
                                            #####                                    
                                            ######                                   
                                           ########,                                 
                                     ,,################,,,,,                         
                               ,,#################################,,                 
                          ,,##########################################,,             
                       ,#########################################, ''#####,          
                    ,#############################################,,   '####,        
                  ,##################################################,,,,####,       
                ,###########''''           ''''###############################       
              ,#####''   ,,,,##########,,,,          '''####'''          '####       
            ,##' ,,,,###########################,,,                        '##       
           ' ,,###''''                  '''############,,,                           
         ,,##''                                '''############,,,,        ,,,,,,###''
      ,#''                                            '''#######################'''  
     '                                                          ''''####''''         
             ,#######,   #######,   ,#######,      ##                                
            ,#'     '#,  ##    ##  ,#'     '#,    #''#        ######   ,####,        
            ##       ##  ##   ,#'  ##            #'  '#       #        #'  '#        
            ##       ##  #######   ##           ,######,      #####,   #    #        
            '#,     ,#'  ##    ##  '#,     ,#' ,#      #,         ##   #,  ,#        
             '#######'   ##     ##  '#######'  #'      '#     #####' # '####'        



                  #######################################################
                  #                        -***-                        #
                  #          Department of theory and spectroscopy      #
                  #    Directorship and core code : Frank Neese         #
                  #        Max Planck Institute fuer Kohlenforschung    #
                  #                Kaiser Wilhelm Platz 1               #
                  #                 D-45470 Muelheim/Ruhr               #
                  #                      Germany                        #
                  #                                                     #
                  #                  All rights reserved                #
                  #                        -***-                        #
                  #######################################################


                         Program Version 5.0.4 -  RELEASE  -


 With contributions from (in alphabetic order):
   Daniel Aravena         : Magnetic Suceptibility
   Michael Atanasov       : Ab Initio Ligand Field Theory (pilot matlab implementation)
   Alexander A. Auer      : GIAO ZORA, VPT2 properties, NMR spectrum
   Ute Becker             : Parallelization
   Giovanni Bistoni       : ED, misc. LED, open-shell LED, HFLD
   Martin Brehm           : Molecular dynamics
   Dmytro Bykov           : SCF Hessian
   Vijay G. Chilkuri      : MRCI spin determinant printing, contributions to CSF-ICE
   Dipayan Datta          : RHF DLPNO-CCSD density
   Achintya Kumar Dutta   : EOM-CC, STEOM-CC
   Dmitry Ganyushin       : Spin-Orbit,Spin-Spin,Magnetic field MRCI
   Miquel Garcia          : C-PCM and meta-GGA Hessian, CC/C-PCM, Gaussian charge scheme
   Yang Guo               : DLPNO-NEVPT2, F12-NEVPT2, CIM, IAO-localization
   Andreas Hansen         : Spin unrestricted coupled pair/coupled cluster methods
   Benjamin Helmich-Paris : MC-RPA, TRAH-SCF, COSX integrals
   Lee Huntington         : MR-EOM, pCC
   Robert Izsak           : Overlap fitted RIJCOSX, COSX-SCS-MP3, EOM
   Marcus Kettner         : VPT2
   Christian Kollmar      : KDIIS, OOCD, Brueckner-CCSD(T), CCSD density, CASPT2, CASPT2-K
   Simone Kossmann        : Meta GGA functionals, TD-DFT gradient, OOMP2, MP2 Hessian
   Martin Krupicka        : Initial AUTO-CI
   Lucas Lang             : DCDCAS
   Marvin Lechner         : AUTO-CI (C++ implementation), FIC-MRCC
   Dagmar Lenk            : GEPOL surface, SMD
   Dimitrios Liakos       : Extrapolation schemes; Compound Job, initial MDCI parallelization
   Dimitrios Manganas     : Further ROCIS development; embedding schemes
   Dimitrios Pantazis     : SARC Basis sets
   Anastasios Papadopoulos: AUTO-CI, single reference methods and gradients
   Taras Petrenko         : DFT Hessian,TD-DFT gradient, ASA, ECA, R-Raman, ABS, FL, XAS/XES, NRVS
   Peter Pinski           : DLPNO-MP2, DLPNO-MP2 Gradient
   Christoph Reimann      : Effective Core Potentials
   Marius Retegan         : Local ZFS, SOC
   Christoph Riplinger    : Optimizer, TS searches, QM/MM, DLPNO-CCSD(T), (RO)-DLPNO pert. Triples
   Tobias Risthaus        : Range-separated hybrids, TD-DFT gradient, RPA, STAB
   Michael Roemelt        : Original ROCIS implementation
   Masaaki Saitow         : Open-shell DLPNO-CCSD energy and density
   Barbara Sandhoefer     : DKH picture change effects
   Avijit Sen             : IP-ROCIS
   Kantharuban Sivalingam : CASSCF convergence, NEVPT2, FIC-MRCI
   Bernardo de Souza      : ESD, SOC TD-DFT
   Georgi Stoychev        : AutoAux, RI-MP2 NMR, DLPNO-MP2 response
   Willem Van den Heuvel  : Paramagnetic NMR
   Boris Wezisla          : Elementary symmetry handling
   Frank Wennmohs         : Technical directorship


 We gratefully acknowledge several colleagues who have allowed us to
 interface, adapt or use parts of their codes:
   Stefan Grimme, W. Hujo, H. Kruse, P. Pracht,  : VdW corrections, initial TS optimization,
                  C. Bannwarth, S. Ehlert          DFT functionals, gCP, sTDA/sTD-DF
   Ed Valeev, F. Pavosevic, A. Kumar             : LibInt (2-el integral package), F12 methods
   Garnet Chan, S. Sharma, J. Yang, R. Olivares  : DMRG
   Ulf Ekstrom                                   : XCFun DFT Library
   Mihaly Kallay                                 : mrcc  (arbitrary order and MRCC methods)
   Jiri Pittner, Ondrej Demel                    : Mk-CCSD
   Frank Weinhold                                : gennbo (NPA and NBO analysis)
   Christopher J. Cramer and Donald G. Truhlar   : smd solvation model
   Lars Goerigk                                  : TD-DFT with DH, B97 family of functionals
   V. Asgeirsson, H. Jonsson                     : NEB implementation
   FAccTs GmbH                                   : IRC, NEB, NEB-TS, DLPNO-Multilevel, CI-OPT
                                                   MM, QMMM, 2- and 3-layer-ONIOM, Crystal-QMMM,
                                                   LR-CPCM, SF, NACMEs, symmetry and pop. for TD-DFT,
                                                   nearIR, NL-DFT gradient (VV10), updates on ESD,
                                                   ML-optimized integration grids
   S Lehtola, MJT Oliveira, MAL Marques          : LibXC Library
   Liviu Ungur et al                             : ANISO software


 Your calculation uses the libint2 library for the computation of 2-el integrals
 For citations please refer to: http://libint.valeyev.net

 Your ORCA version has been built with support for libXC version: 5.1.0
 For citations please refer to: https://tddft.org/programs/libxc/

 This ORCA versions uses:
   CBLAS   interface :  Fast vector & matrix operations
   LAPACKE interface :  Fast linear algebra routines
   SCALAPACK package :  Parallel linear algebra routines
   Shared memory     :  Shared parallel matrices
   BLAS/LAPACK       :  OpenBLAS 0.3.15  USE64BITINT DYNAMIC_ARCH NO_AFFINITY Zen SINGLE_THREADED
        Core in use  :  Zen
   Copyright (c) 2011-2014, The OpenBLAS Project


================================================================================

----- Orbital basis set information -----
Your calculation utilizes the basis: def2-TZVP(-f)
   F. Weigend and R. Ahlrichs, Phys. Chem. Chem. Phys. 7, 3297 (2005).

----- AuxJ basis set information -----
Your calculation utilizes the auxiliary basis: def2/J
   F. Weigend, Phys. Chem. Chem. Phys. 8, 1057 (2006).

----- AuxC basis set information -----
Your calculation utilizes the auxiliary basis: def2-TZVP/C
  H-La, Hf-Rn : A. Hellweg, C. Hattig, S. Hofener and W. Klopper, Theor. Chem. Acc. 117, 587 (2007).
        Ce-Lu : J. Chmela and M. E. Harding, Mol. Phys. (2018).

================================================================================
                                        WARNINGS
                       Please study these warnings very carefully!
================================================================================

INFO   : Checking CIS options ...

WARNING: Analytical Frequencies for this method not available!
  ===> : Switching to Numerical Frequencies!

WARNING: CIS/ROCIS methods need fully converged wavefunctions
  ===> : Setting SCFConvForced true
         You can overwrite this default with %scf ConvForced false 


INFO   : the flag for use of the SHARK integral package has been found!

================================================================================
                                       INPUT FILE
================================================================================
NAME = NMU-1_ES.inp
|  1> ! B3LYP/G FREQ Def2-TZVP(-f) Def2-TZVP/C Def2/J RIJCOSX TightSCF CPCM(Water) AllPop SOSCF
|  2> %maxcore 3000
|  3> %tddft
|  4>     NRoots 5
|  5>     IRoot 1
|  6> end
|  7> 
|  8> * xyz 0 1
|  9>   C   -6.56158123625696     -1.48119619033453     -0.14330629272972
| 10>   C   -6.53799054812605     -2.59280445360835     -1.17814081077231
| 11>   C   -5.56488928199190     -3.67780870280229     -0.73465077018323
| 12>   H   -6.23591109125885     -2.18302965453777     -2.14550550008738
| 13>   H   -7.54591465009978     -2.99425998208802     -1.28865320266025
| 14>   C   -4.21950617567578     -3.09144431684412     -0.39293759754157
| 15>   H   -5.44609278599897     -4.43922050041694     -1.50718462150461
| 16>   H   -5.97276392180609     -4.18716633877340      0.14627222217038
| 17>   C   -4.11421284322847     -1.72973008399726      0.03305364593231
| 18>   N   -5.22926790007395     -0.93875651119412      0.10322618639046
| 19>   H   -6.97582759571070     -1.85909707691845      0.80372879071618
| 20>   H   -7.19497246765664     -0.65459882831025     -0.46472890731671
| 21>   C   -5.17302039128788      0.39683454240174      0.68641402378405
| 22>   C   -3.86424197170252      1.09157074253155      0.35622949429498
| 23>   H   -5.29477399096886      0.31998810811496      1.77761239828010
| 24>   H   -6.02521649935718      0.95714410801838      0.30379979168223
| 25>   C   -2.69118605551432      0.24119756794506      0.82673771872227
| 26>   H   -3.84707719970196      2.06889146588906      0.83951670787675
| 27>   H   -3.80483930787859      1.25443960938839     -0.72279464377081
| 28>   C   -2.83670655647521     -1.18889878853875      0.37899319423064
| 29>   H   -2.63199178903666      0.26946801695638      1.92120656210156
| 30>   H   -1.74855602606259      0.64710384736915      0.46078933894439
| 31>   C   -3.07793399687407     -3.85567218319136     -0.47759232831121
| 32>   C   -1.73244473680217     -2.02093831690175      0.29773004252760
| 33>   C   -1.79918167421237     -3.35722130602123     -0.13536769115483
| 34>   O   -0.52502259161304     -1.47721495724992      0.66469131957331
| 35>   C   0.67956576932772     -2.18008413214011      0.59720060563461
| 36>   C   -0.60339054465163     -4.12012552135440     -0.20256405573909
| 37>   C   0.64185743784514     -3.55646471395371      0.14949583485797
| 38>   O   1.65786795095007     -1.51755268308299      0.91736984805608
| 39>   C   1.87119041238023     -4.31566087316578      0.04645579834235
| 40>   C   3.07752358497213     -3.99763678863633      0.71543170181726
| 41>   C   1.91451881493511     -5.49237077036442     -0.75338437725169
| 42>   N   2.98126480789342     -6.26912781254528     -0.90338731548739
| 43>   C   4.10337027210935     -5.93869112264697     -0.24907547601803
| 44>   C   4.18372543486746     -4.80979531304105      0.56605787767279
| 45>   H   1.04216767336901     -5.78782266467474     -1.32287677582417
| 46>   H   5.10626676166292     -4.58071303618696      1.08424637250749
| 47>   H   4.95672155379938     -6.59460550868661     -0.38023227140347
| 48>   H   3.12477351335729     -3.12975955208128      1.35244857311052
| 49>   H   -3.15601423671858     -4.88321893258259     -0.81353134367906
| 50>   H   -0.67896592072739     -5.15930039174288     -0.48233406779075
| 51> *
| 52> 
| 53> 
| 54>                          ****END OF INPUT****
================================================================================

                       ****************************
                       * Single Point Calculation *
                       ****************************

---------------------------------
CARTESIAN COORDINATES (ANGSTROEM)
---------------------------------
  C     -6.561581   -1.481196   -0.143306
  C     -6.537991   -2.592804   -1.178141
  C     -5.564889   -3.677809   -0.734651
  H     -6.235911   -2.183030   -2.145506
  H     -7.545915   -2.994260   -1.288653
  C     -4.219506   -3.091444   -0.392938
  H     -5.446093   -4.439221   -1.507185
  H     -5.972764   -4.187166    0.146272
  C     -4.114213   -1.729730    0.033054
  N     -5.229268   -0.938757    0.103226
  H     -6.975828   -1.859097    0.803729
  H     -7.194972   -0.654599   -0.464729
  C     -5.173020    0.396835    0.686414
  C     -3.864242    1.091571    0.356229
  H     -5.294774    0.319988    1.777612
  H     -6.025216    0.957144    0.303800
  C     -2.691186    0.241198    0.826738
  H     -3.847077    2.068891    0.839517
  H     -3.804839    1.254440   -0.722795
  C     -2.836707   -1.188899    0.378993
  H     -2.631992    0.269468    1.921207
  H     -1.748556    0.647104    0.460789
  C     -3.077934   -3.855672   -0.477592
  C     -1.732445   -2.020938    0.297730
  C     -1.799182   -3.357221   -0.135368
  O     -0.525023   -1.477215    0.664691
  C      0.679566   -2.180084    0.597201
  C     -0.603391   -4.120126   -0.202564
  C      0.641857   -3.556465    0.149496
  O      1.657868   -1.517553    0.917370
  C      1.871190   -4.315661    0.046456
  C      3.077524   -3.997637    0.715432
  C      1.914519   -5.492371   -0.753384
  N      2.981265   -6.269128   -0.903387
  C      4.103370   -5.938691   -0.249075
  C      4.183725   -4.809795    0.566058
  H      1.042168   -5.787823   -1.322877
  H      5.106267   -4.580713    1.084246
  H      4.956722   -6.594606   -0.380232
  H      3.124774   -3.129760    1.352449
  H     -3.156014   -4.883219   -0.813531
  H     -0.678966   -5.159300   -0.482334

----------------------------
CARTESIAN COORDINATES (A.U.)
----------------------------
  NO LB      ZA    FRAG     MASS         X           Y           Z
   0 C     6.0000    0    12.011  -12.399592   -2.799055   -0.270810
   1 C     6.0000    0    12.011  -12.355012   -4.899690   -2.226363
   2 C     6.0000    0    12.011  -10.516117   -6.950051   -1.388289
   3 H     1.0000    0     1.008  -11.784164   -4.125328   -4.054418
   4 H     1.0000    0     1.008  -14.259712   -5.658331   -2.435202
   5 C     6.0000    0    12.011   -7.973711   -5.841983   -0.742544
   6 H     1.0000    0     1.008  -10.291624   -8.388911   -2.848166
   7 H     1.0000    0     1.008  -11.286888   -7.912598    0.276414
   8 C     6.0000    0    12.011   -7.774736   -3.268716    0.062462
   9 N     7.0000    0    14.007   -9.881884   -1.773993    0.195069
  10 H     1.0000    0     1.008  -13.182404   -3.513184    1.518827
  11 H     1.0000    0     1.008  -13.596528   -1.237013   -0.878210
  12 C     6.0000    0    12.011   -9.775592    0.749909    1.297135
  13 C     6.0000    0    12.011   -7.302359    2.062770    0.673176
  14 H     1.0000    0     1.008  -10.005673    0.604690    3.359201
  15 H     1.0000    0     1.008  -11.386009    1.808740    0.574098
  16 C     6.0000    0    12.011   -5.085605    0.455797    1.562308
  17 H     1.0000    0     1.008   -7.269922    3.909638    1.586457
  18 H     1.0000    0     1.008   -7.190104    2.370547   -1.365884
  19 C     6.0000    0    12.011   -5.360599   -2.246693    0.716193
  20 H     1.0000    0     1.008   -4.973744    0.509221    3.630554
  21 H     1.0000    0     1.008   -3.304292    1.222849    0.870766
  22 C     6.0000    0    12.011   -5.816452   -7.286164   -0.902519
  23 C     6.0000    0    12.011   -3.273846   -3.819020    0.562628
  24 C     6.0000    0    12.011   -3.399961   -6.344229   -0.255808
  25 O     8.0000    0    15.999   -0.992149   -2.791532    1.256085
  26 C     6.0000    0    12.011    1.284193   -4.119762    1.128546
  27 C     6.0000    0    12.011   -1.140243   -7.785909   -0.382791
  28 C     6.0000    0    12.011    1.212935   -6.720744    0.282506
  29 O     8.0000    0    15.999    3.132916   -2.867759    1.733578
  30 C     6.0000    0    12.011    3.536037   -8.155417    0.087789
  31 C     6.0000    0    12.011    5.815677   -7.554439    1.351970
  32 C     6.0000    0    12.011    3.617916  -10.379077   -1.423690
  33 N     7.0000    0    14.007    5.633774  -11.846935   -1.707155
  34 C     6.0000    0    12.011    7.754246  -11.222500   -0.470684
  35 C     6.0000    0    12.011    7.906095   -9.089196    1.069694
  36 H     1.0000    0     1.008    1.969411  -10.937400   -2.499875
  37 H     1.0000    0     1.008    9.649446   -8.656293    2.048929
  38 H     1.0000    0     1.008    9.366846  -12.461998   -0.718535
  39 H     1.0000    0     1.008    5.904966   -5.914388    2.555757
  40 H     1.0000    0     1.008   -5.964003   -9.227946   -1.537351
  41 H     1.0000    0     1.008   -1.283060   -9.749665   -0.911479

--------------------------------
INTERNAL COORDINATES (ANGSTROEM)
--------------------------------
 C      0   0   0     0.000000000000     0.00000000     0.00000000
 C      1   0   0     1.518918013349     0.00000000     0.00000000
 C      2   1   0     1.523431557709   109.43956309     0.00000000
 H      2   1   3     1.093143095092   109.44247963   238.93387223
 H      2   1   3     1.090545975852   108.91070215   121.45676805
 C      3   2   1     1.506866546260   111.04973975   308.25888770
 H      3   2   1     1.091177842721   111.12548541   186.02511225
 H      3   2   1     1.096281096062   109.09792391    68.80979004
 C      6   3   2     1.430671477773   120.23879764    25.93616228
 N      9   6   3     1.368908747179   120.34977113   358.42920511
 H      1   2   3     1.100583743147   109.92580579   294.52886458
 H      1   2   3     1.089844093477   111.29461957   175.93515710
 C     10   9   6     1.458449621473   121.21305441   172.47096682
 C     13  10   9     1.518084702135   111.43012993    36.69971612
 H     13  10   9     1.100655807235   109.16131548   274.93598495
 H     13  10   9     1.089301917072   107.48282072   158.84744861
 C     14  13  10     1.523342610122   109.95221994   303.47928161
 H     14  13  10     1.090420541128   109.10771480   182.05959002
 H     14  13  10     1.092862312823   109.25721170    64.61478821
 C      9   6   3     1.429753466133   119.85727337   178.84458043
 H     17  14  13     1.096432956728   109.60250146   287.97380500
 H     17  14  13     1.089600613419   110.76253330   171.12194663
 C      6   3   2     1.376371205220   120.69801861   205.55685213
 C     20   9   6     1.385022614606   118.09604042   359.47180729
 C     24  20   9     1.406300000976   123.44007978     1.49651218
 O     24  20   9     1.374104765793   116.56399528   181.35010110
 C     26  24  20     1.396285498311   123.09070830   181.98889485
 C     25  24  20     1.420019231814   119.01979393   179.00790224
 C     28  25  24     1.411489358897   121.10235954   359.63111379
 O     27  26  24     1.224145180667   113.85158533   177.39270530
 C     29  28  25     1.448535681151   121.44487560   181.83247904
 C     31  29  28     1.415594504463   124.87968608   199.17012855
 C     31  29  28     1.423470350632   119.93778669    17.84000455
 N     33  31  29     1.328081095999   124.84768387   180.87716229
 C     34  33  31     1.340310808031   118.23740016     0.63908446
 C     32  31  29     1.380433461205   119.97181930   178.63008438
 H     33  31  29     1.082871150264   119.77059582     3.13785469
 H     36  32  31     1.082626669445   120.43545616   180.78955868
 H     35  34  33     1.084266663119   116.78916890   179.38613999
 H     32  31  29     1.077605655040   119.84518573   359.57693122
 H     23   6   3     1.083883696752   119.05853882     1.21726157
 H     28  25  24     1.078826820374   118.08512461   176.55983262

---------------------------
INTERNAL COORDINATES (A.U.)
---------------------------
 C      0   0   0     0.000000000000     0.00000000     0.00000000
 C      1   0   0     2.870339065110     0.00000000     0.00000000
 C      2   1   0     2.878868427842   109.43956309     0.00000000
 H      2   1   3     2.065741074912   109.44247963   238.93387223
 H      2   1   3     2.060833230810   108.91070215   121.45676805
 C      3   2   1     2.847565092799   111.04973975   308.25888770
 H      3   2   1     2.062027286145   111.12548541   186.02511225
 H      3   2   1     2.071671037352   109.09792391    68.80979004
 C      6   3   2     2.703577280603   120.23879764    25.93616228
 N      9   6   3     2.586862634498   120.34977113   358.42920511
 H      1   2   3     2.079801861993   109.92580579   294.52886458
 H      1   2   3     2.059506865344   111.29461957   175.93515710
 C     10   9   6     2.756070364704   121.21305441   172.47096682
 C     13  10   9     2.868764335131   111.43012993    36.69971612
 H     13  10   9     2.079938043385   109.16131548   274.93598495
 H     13  10   9     2.058482300422   107.48282072   158.84744861
 C     14  13  10     2.878700341264   109.95221994   303.47928161
 H     14  13  10     2.060596193534   109.10771480   182.05959002
 H     14  13  10     2.065210473320   109.25721170    64.61478821
 C      9   6   3     2.701842490015   119.85727337   178.84458043
 H     17  14  13     2.071958012421   109.60250146   287.97380500
 H     17  14  13     2.059046754714   110.76253330   171.12194663
 C      6   3   2     2.600964636480   120.69801861   205.55685213
 C     20   9   6     2.617313430893   118.09604042   359.47180729
 C     24  20   9     2.657521863978   123.44007978     1.49651218
 O     24  20   9     2.596681686665   116.56399528   181.35010110
 C     26  24  20     2.638597196573   123.09070830   181.98889485
 C     25  24  20     2.683447453030   119.01979393   179.00790224
 C     28  25  24     2.667328329259   121.10235954   359.63111379
 O     27  26  24     2.313299139620   113.85158533   177.39270530
 C     29  28  25     2.737335732588   121.44487560   181.83247904
 C     31  29  28     2.675085930119   124.87968608   199.17012855
 C     31  29  28     2.689969122451   119.93778669    17.84000455
 N     33  31  29     2.509709555076   124.84768387   180.87716229
 C     34  33  31     2.532820361513   118.23740016     0.63908446
 C     32  31  29     2.608641187779   119.97181930   178.63008438
 H     33  31  29     2.046329912324   119.77059582     3.13785469
 H     36  32  31     2.045867910530   120.43545616   180.78955868
 H     35  34  33     2.048967049436   116.78916890   179.38613999
 H     32  31  29     2.036379568391   119.84518573   359.57693122
 H     23   6   3     2.048243347884   119.05853882     1.21726157
 H     28  25  24     2.038687236437   118.08512461   176.55983262

---------------------
BASIS SET INFORMATION
---------------------
There are 4 groups of distinct atoms

 Group   1 Type C   : 11s6p2d contracted to 5s3p2d pattern {62111/411/11}
 Group   2 Type H   : 5s1p contracted to 3s1p pattern {311/1}
 Group   3 Type N   : 11s6p2d contracted to 5s3p2d pattern {62111/411/11}
 Group   4 Type O   : 11s6p2d contracted to 5s3p2d pattern {62111/411/11}

Atom   0C    basis set group =>   1
Atom   1C    basis set group =>   1
Atom   2C    basis set group =>   1
Atom   3H    basis set group =>   2
Atom   4H    basis set group =>   2
Atom   5C    basis set group =>   1
Atom   6H    basis set group =>   2
Atom   7H    basis set group =>   2
Atom   8C    basis set group =>   1
Atom   9N    basis set group =>   3
Atom  10H    basis set group =>   2
Atom  11H    basis set group =>   2
Atom  12C    basis set group =>   1
Atom  13C    basis set group =>   1
Atom  14H    basis set group =>   2
Atom  15H    basis set group =>   2
Atom  16C    basis set group =>   1
Atom  17H    basis set group =>   2
Atom  18H    basis set group =>   2
Atom  19C    basis set group =>   1
Atom  20H    basis set group =>   2
Atom  21H    basis set group =>   2
Atom  22C    basis set group =>   1
Atom  23C    basis set group =>   1
Atom  24C    basis set group =>   1
Atom  25O    basis set group =>   4
Atom  26C    basis set group =>   1
Atom  27C    basis set group =>   1
Atom  28C    basis set group =>   1
Atom  29O    basis set group =>   4
Atom  30C    basis set group =>   1
Atom  31C    basis set group =>   1
Atom  32C    basis set group =>   1
Atom  33N    basis set group =>   3
Atom  34C    basis set group =>   1
Atom  35C    basis set group =>   1
Atom  36H    basis set group =>   2
Atom  37H    basis set group =>   2
Atom  38H    basis set group =>   2
Atom  39H    basis set group =>   2
Atom  40H    basis set group =>   2
Atom  41H    basis set group =>   2
---------------------------------
AUXILIARY/J BASIS SET INFORMATION
---------------------------------
There are 4 groups of distinct atoms

 Group   1 Type C   : 12s5p4d2f1g contracted to 6s4p3d1f1g pattern {711111/2111/211/2/1}
 Group   2 Type H   : 5s2p1d contracted to 3s1p1d pattern {311/2/1}
 Group   3 Type N   : 12s5p4d2f1g contracted to 6s4p3d1f1g pattern {711111/2111/211/2/1}
 Group   4 Type O   : 12s5p4d2f1g contracted to 6s4p3d1f1g pattern {711111/2111/211/2/1}

Atom   0C    basis set group =>   1
Atom   1C    basis set group =>   1
Atom   2C    basis set group =>   1
Atom   3H    basis set group =>   2
Atom   4H    basis set group =>   2
Atom   5C    basis set group =>   1
Atom   6H    basis set group =>   2
Atom   7H    basis set group =>   2
Atom   8C    basis set group =>   1
Atom   9N    basis set group =>   3
Atom  10H    basis set group =>   2
Atom  11H    basis set group =>   2
Atom  12C    basis set group =>   1
Atom  13C    basis set group =>   1
Atom  14H    basis set group =>   2
Atom  15H    basis set group =>   2
Atom  16C    basis set group =>   1
Atom  17H    basis set group =>   2
Atom  18H    basis set group =>   2
Atom  19C    basis set group =>   1
Atom  20H    basis set group =>   2
Atom  21H    basis set group =>   2
Atom  22C    basis set group =>   1
Atom  23C    basis set group =>   1
Atom  24C    basis set group =>   1
Atom  25O    basis set group =>   4
Atom  26C    basis set group =>   1
Atom  27C    basis set group =>   1
Atom  28C    basis set group =>   1
Atom  29O    basis set group =>   4
Atom  30C    basis set group =>   1
Atom  31C    basis set group =>   1
Atom  32C    basis set group =>   1
Atom  33N    basis set group =>   3
Atom  34C    basis set group =>   1
Atom  35C    basis set group =>   1
Atom  36H    basis set group =>   2
Atom  37H    basis set group =>   2
Atom  38H    basis set group =>   2
Atom  39H    basis set group =>   2
Atom  40H    basis set group =>   2
Atom  41H    basis set group =>   2
---------------------------------
AUXILIARY/C BASIS SET INFORMATION
---------------------------------
There are 4 groups of distinct atoms

 Group   1 Type C   : 8s6p5d3f1g contracted to 8s6p4d3f1g pattern {11111111/111111/2111/111/1}
 Group   2 Type H   : 4s3p2d contracted to 4s2p1d pattern {1111/21/2}
 Group   3 Type N   : 8s6p5d3f1g contracted to 8s6p4d3f1g pattern {11111111/111111/2111/111/1}
 Group   4 Type O   : 8s6p5d3f1g contracted to 8s6p4d3f1g pattern {11111111/111111/2111/111/1}

Atom   0C    basis set group =>   1
Atom   1C    basis set group =>   1
Atom   2C    basis set group =>   1
Atom   3H    basis set group =>   2
Atom   4H    basis set group =>   2
Atom   5C    basis set group =>   1
Atom   6H    basis set group =>   2
Atom   7H    basis set group =>   2
Atom   8C    basis set group =>   1
Atom   9N    basis set group =>   3
Atom  10H    basis set group =>   2
Atom  11H    basis set group =>   2
Atom  12C    basis set group =>   1
Atom  13C    basis set group =>   1
Atom  14H    basis set group =>   2
Atom  15H    basis set group =>   2
Atom  16C    basis set group =>   1
Atom  17H    basis set group =>   2
Atom  18H    basis set group =>   2
Atom  19C    basis set group =>   1
Atom  20H    basis set group =>   2
Atom  21H    basis set group =>   2
Atom  22C    basis set group =>   1
Atom  23C    basis set group =>   1
Atom  24C    basis set group =>   1
Atom  25O    basis set group =>   4
Atom  26C    basis set group =>   1
Atom  27C    basis set group =>   1
Atom  28C    basis set group =>   1
Atom  29O    basis set group =>   4
Atom  30C    basis set group =>   1
Atom  31C    basis set group =>   1
Atom  32C    basis set group =>   1
Atom  33N    basis set group =>   3
Atom  34C    basis set group =>   1
Atom  35C    basis set group =>   1
Atom  36H    basis set group =>   2
Atom  37H    basis set group =>   2
Atom  38H    basis set group =>   2
Atom  39H    basis set group =>   2
Atom  40H    basis set group =>   2
Atom  41H    basis set group =>   2
------------------------------------------------------------------------------
                           ORCA GTO INTEGRAL CALCULATION
                           -- RI-GTO INTEGRALS CHOSEN --
------------------------------------------------------------------------------
------------------------------------------------------------------------------
                   ___                                                        
                  /   \      - P O W E R E D   B Y -                         
                 /     \                                                     
                 |  |  |   _    _      __       _____    __    __             
                 |  |  |  | |  | |    /  \     |  _  \  |  |  /  |          
                  \  \/   | |  | |   /    \    | | | |  |  | /  /          
                 / \  \   | |__| |  /  /\  \   | |_| |  |  |/  /          
                |  |  |   |  __  | /  /__\  \  |    /   |      \           
                |  |  |   | |  | | |   __   |  |    \   |  |\   \          
                \     /   | |  | | |  |  |  |  | |\  \  |  | \   \       
                 \___/    |_|  |_| |__|  |__|  |_| \__\ |__|  \__/        
                                                                              
                      - O R C A' S   B I G   F R I E N D -                    
                                      &                                       
                       - I N T E G R A L  F E E D E R -                       
                                                                              
 v1 FN, 2020, v2 2021                                                         
------------------------------------------------------------------------------


Reading SHARK input file NMU-1_ES.SHARKINP.tmp ... ok
----------------------
SHARK INTEGRAL PACKAGE
----------------------

Number of atoms                             ...     42
Number of basis functions                   ...    684
Number of shells                            ...    312
Maximum angular momentum                    ...      2
Integral batch strategy                     ... SHARK/LIBINT Hybrid
RI-J (if used) integral strategy            ... SPLIT-RIJ (Revised 2003 algorithm where possible)
Printlevel                                  ...      1
Contraction scheme used                     ... SEGMENTED contraction
Coulomb Range Separation                    ... NOT USED
Exchange Range Separation                   ... NOT USED
Finite Nucleus Model                        ... NOT USED
Auxiliary Coulomb fitting basis             ... AVAILABLE
   # of basis functions in Aux-J            ...   1374
   # of shells in Aux-J                     ...    450
   Maximum angular momentum in Aux-J        ...      4
Auxiliary J/K fitting basis                 ... NOT available
Auxiliary Correlation fitting basis         ... AVAILABLE
   # of basis functions in Aux-C            ...   2094
   # of shells in Aux-C                     ...    654
   Maximum angular momentum in Aux-C        ...      4
Auxiliary 'external' fitting basis          ... NOT available
Integral threshold                          ...     2.500000e-11
Primitive cut-off                           ...     2.500000e-12
Primitive pair pre-selection threshold      ...     2.500000e-12

Calculating pre-screening integrals         ... done (  0.1 sec) Dimension = 312
Organizing shell pair data                  ... done (  3.2 sec)
Shell pair information
Total number of shell pairs                 ...     48828
Shell pairs after pre-screening             ...     32357
Total number of primitive shell pairs       ...    159912
Primitive shell pairs kept                  ...     69611
          la=0 lb=0:   9539 shell pairs
          la=1 lb=0:  10737 shell pairs
          la=1 lb=1:   3022 shell pairs
          la=2 lb=0:   5306 shell pairs
          la=2 lb=1:   2998 shell pairs
          la=2 lb=2:    755 shell pairs

Calculating one electron integrals          ... done (  0.1 sec)
Calculating RI/J V-Matrix + Cholesky decomp.... done (  2.6 sec)
Calculating RI/C V-Matrix + Cholesky decomp.... done (  6.1 sec)
Calculating Nuclear repulsion               ... done (  0.0 sec) ENN=   1939.505806996103 Eh

SHARK setup successfully completed in  17.0 seconds

Maximum memory used throughout the entire GTOINT-calculation: 238.0 MB
-------------------------------------------------------------------------------
                                 ORCA SCF
-------------------------------------------------------------------------------

------------
SCF SETTINGS
------------
Hamiltonian:
 Density Functional     Method          .... DFT(GTOs)
 Exchange Functional    Exchange        .... B88
   X-Alpha parameter    XAlpha          ....  0.666667
   Becke's b parameter  XBeta           ....  0.004200
 Correlation Functional Correlation     .... LYP
 LDA part of GGA corr.  LDAOpt          .... VWN-3
 Gradients option       PostSCFGGA      .... off
 Hybrid DFT is turned on
   Fraction HF Exchange ScalHFX         ....  0.200000
   Scaling of DF-GGA-X  ScalDFX         ....  0.720000
   Scaling of DF-GGA-C  ScalDFC         ....  0.810000
   Scaling of DF-LDA-C  ScalLDAC        ....  1.000000
   Perturbative correction              ....  0.000000
   Density functional embedding theory  .... OFF
   NL short-range parameter             ....  4.800000
 RI-approximation to the Coulomb term is turned on
   Number of AuxJ basis functions       .... 1374
   RIJ-COSX (HFX calculated with COS-X)).... on


General Settings:
 Integral files         IntName         .... NMU-1_ES
 Hartree-Fock type      HFTyp           .... RHF
 Total Charge           Charge          ....    0
 Multiplicity           Mult            ....    1
 Number of Electrons    NEL             ....  168
 Basis Dimension        Dim             ....  684
 Nuclear Repulsion      ENuc            ....   1939.5058069961 Eh

Convergence Acceleration:
 DIIS                   CNVDIIS         .... on
   Start iteration      DIISMaxIt       ....    12
   Startup error        DIISStart       ....  0.200000
   # of expansion vecs  DIISMaxEq       ....     5
   Bias factor          DIISBfac        ....   1.050
   Max. coefficient     DIISMaxC        ....  10.000
 Trust-Rad. Augm. Hess. CNVTRAH         .... auto
   Auto Start mean grad. ratio tolernc. ....  1.125000
   Auto Start start iteration           ....    20
   Auto Start num. interpolation iter.  ....    10
   Max. Number of Micro iterations      ....    16
   Max. Number of Macro iterations      .... Maxiter - #DIIS iter
   Number of Davidson start vectors     ....     2
   Converg. threshold I  (grad. norm)   ....   1.000e-05
   Converg. threshold II (energy diff.) ....   1.000e-08
   Grad. Scal. Fac. for Micro threshold ....   0.100
   Minimum threshold for Micro iter.    ....   0.010
   NR start threshold (gradient norm)   ....   0.001
   Initial trust radius                 ....   0.400
   Minimum AH scaling param. (alpha)    ....   1.000
   Maximum AH scaling param. (alpha)    .... 1000.000
   Orbital update algorithm             .... Taylor
   White noise on init. David. guess    .... on
   Maximum white noise                  ....   0.010
   Quad. conv. algorithm                .... NR
 SOSCF                  CNVSOSCF        .... on
   Start iteration      SOSCFMaxIt      ....   150
   Startup grad/error   SOSCFStart      ....  0.003300
 Level Shifting         CNVShift        .... on
   Level shift para.    LevelShift      ....    0.2500
   Turn off err/grad.   ShiftErr        ....    0.0010
 Zerner damping         CNVZerner       .... off
 Static damping         CNVDamp         .... on
   Fraction old density DampFac         ....    0.7000
   Max. Damping (<1)    DampMax         ....    0.9800
   Min. Damping (>=0)   DampMin         ....    0.0000
   Turn off err/grad.   DampErr         ....    0.1000
 Fernandez-Rico         CNVRico         .... off

SCF Procedure:
 Maximum # iterations   MaxIter         ....   125
 SCF integral mode      SCFMode         .... Direct
   Integral package                     .... SHARK and LIBINT hybrid scheme
 Reset frequency        DirectResetFreq ....    20
 Integral Threshold     Thresh          ....  2.500e-11 Eh
 Primitive CutOff       TCut            ....  2.500e-12 Eh

Convergence Tolerance:
 Convergence Check Mode ConvCheckMode   .... Total+1el-Energy
 Convergence forced     ConvForced      .... 1
 Energy Change          TolE            ....  1.000e-08 Eh
 1-El. energy change                    ....  1.000e-05 Eh
 Orbital Gradient       TolG            ....  1.000e-05
 Orbital Rotation angle TolX            ....  1.000e-05
 DIIS Error             TolErr          ....  5.000e-07


Diagonalization of the overlap matrix:
Smallest eigenvalue                        ... 3.540e-06
Time for diagonalization                   ...    0.041 sec
Threshold for overlap eigenvalues          ... 1.000e-08
Number of eigenvalues below threshold      ... 0
Time for construction of square roots      ...    0.347 sec
Total time needed                          ...    0.388 sec

Time for model grid setup =    1.414 sec

------------------------------
INITIAL GUESS: MODEL POTENTIAL
------------------------------
Loading Hartree-Fock densities                     ... done
Calculating cut-offs                               ... done
Initializing the effective Hamiltonian             ... done
Setting up the integral package (SHARK)            ... done
Starting the Coulomb interaction                   ... done (   1.5 sec)
Reading the grid                                   ... done
Mapping shells                                     ... done
Starting the XC term evaluation                    ... done (   1.0 sec)
  promolecular density results
     # of electrons  =    168.000045012
     EX              =   -137.853649203
     EC              =     -5.739172717
     EX+EC           =   -143.592821920
Transforming the Hamiltonian                       ... done (   0.0 sec)
Diagonalizing the Hamiltonian                      ... done (   0.0 sec)
Back transforming the eigenvectors                 ... done (   0.0 sec)
Now organizing SCF variables                       ... done
                      ------------------
                      INITIAL GUESS DONE (   4.7 sec)
                      ------------------
-------------------
DFT GRID GENERATION
-------------------

General Integration Accuracy     IntAcc      ... 4.388
Radial Grid Type                 RadialGrid  ... OptM3 with GC (2021)
Angular Grid (max. ang.)         AngularGrid ... 4 (Lebedev-302)
Angular grid pruning method      GridPruning ... 4 (adaptive)
Weight generation scheme         WeightScheme... Becke
Basis function cutoff            BFCut       ... 1.0000e-11
Integration weight cutoff        WCut        ... 1.0000e-14
Angular grids for H and He will be reduced by one unit
Partially contracted basis set               ... off
Rotationally invariant grid construction     ... off

Total number of grid points                  ...   200265
Total number of batches                      ...     3147
Average number of points per batch           ...       63
Average number of grid points per atom       ...     4768
Time for grid setup =    4.511 sec

--------------------
COSX GRID GENERATION
--------------------

GRIDX 1
-------
General Integration Accuracy     IntAcc      ... 3.816
Radial Grid Type                 RadialGrid  ... OptM3 with GC (2021)
Angular Grid (max. ang.)         AngularGrid ... 1 (Lebedev-50)
Angular grid pruning method      GridPruning ... 4 (adaptive)
Weight generation scheme         WeightScheme... Becke
Basis function cutoff            BFCut       ... 1.0000e-11
Integration weight cutoff        WCut        ... 1.0000e-14
Angular grids for H and He will be reduced by one unit
Partially contracted basis set               ... on
Rotationally invariant grid construction     ... off

Total number of grid points                  ...    25429
Total number of batches                      ...      419
Average number of points per batch           ...       60
Average number of grid points per atom       ...      605
UseSFitting                                  ... on

GRIDX 2
-------
General Integration Accuracy     IntAcc      ... 4.020
Radial Grid Type                 RadialGrid  ... OptM3 with GC (2021)
Angular Grid (max. ang.)         AngularGrid ... 2 (Lebedev-110)
Angular grid pruning method      GridPruning ... 4 (adaptive)
Weight generation scheme         WeightScheme... Becke
Basis function cutoff            BFCut       ... 1.0000e-11
Integration weight cutoff        WCut        ... 1.0000e-14
Angular grids for H and He will be reduced by one unit
Partially contracted basis set               ... on
Rotationally invariant grid construction     ... off

Total number of grid points                  ...    55256
Total number of batches                      ...      886
Average number of points per batch           ...       62
Average number of grid points per atom       ...     1316
UseSFitting                                  ... on

GRIDX 3
-------
General Integration Accuracy     IntAcc      ... 4.338
Radial Grid Type                 RadialGrid  ... OptM3 with GC (2021)
Angular Grid (max. ang.)         AngularGrid ... 3 (Lebedev-194)
Angular grid pruning method      GridPruning ... 4 (adaptive)
Weight generation scheme         WeightScheme... Becke
Basis function cutoff            BFCut       ... 1.0000e-11
Integration weight cutoff        WCut        ... 1.0000e-14
Angular grids for H and He will be reduced by one unit
Partially contracted basis set               ... on
Rotationally invariant grid construction     ... off

Total number of grid points                  ...   120952
Total number of batches                      ...     1913
Average number of points per batch           ...       63
Average number of grid points per atom       ...     2880
UseSFitting                                  ... on

Time for X-Grid setup             =    9.777 sec


--------------------
CPCM SOLVATION MODEL
--------------------
CPCM parameters:
  Epsilon                                         ...      80.4000
  Refrac                                          ...       1.3300
  Rsolv                                           ...       1.3000
  Surface type                                    ... GAUSSIAN VDW
  Epsilon function type                           ...         CPCM
Radii:
 Radius for C  used is    3.8550 Bohr (=   2.0400 Ang.)
 Radius for H  used is    2.4944 Bohr (=   1.3200 Ang.)
 Radius for N  used is    3.5149 Bohr (=   1.8600 Ang.)
 Radius for O  used is    3.4469 Bohr (=   1.8240 Ang.)
Calculating surface                               ...        done! (  0.0s)
GEPOL surface points                              ...         2116
GEPOL Volume                                      ...    2459.8001
GEPOL Surface-area                                ...    1212.1997
Calculating surface distance matrix               ...        done! (  0.0s)
Performing Cholesky decomposition & store         ...        done! (  3.1s)
Overall time for CPCM initialization              ...                 3.2s
--------------
SCF ITERATIONS
--------------
ITER       Energy         Delta-E        Max-DP      RMS-DP      [F,P]     Damp
               ***  Starting incremental Fock matrix formation  ***
  0  -1032.7701591975   0.000000000000 0.08956503  0.00116123  0.3060188 0.7000
  1  -1033.0192933884  -0.249134190881 0.09027776  0.00094873  0.1161509 0.7000
                               ***Turning on DIIS***
  2  -1033.1213682690  -0.102074880564 0.11110016  0.00164296  0.0381257 0.0000
  3  -1033.2841902100  -0.162821941077 0.08160040  0.00067862  0.0470839 0.0000
  4  -1033.3164417905  -0.032251580451 0.01757926  0.00021563  0.0194440 0.0000
  5  -1033.3187092709  -0.002267480409 0.01268297  0.00011047  0.0107625 0.0000
                      *** Initiating the SOSCF procedure ***
                           *** Shutting down DIIS ***
                      *** Re-Reading the Fockian *** 
                      *** Removing any level shift *** 
ITER      Energy       Delta-E        Grad      Rot      Max-DP    RMS-DP
  6  -1033.31891194  -0.0002026708  0.000280  0.000280  0.004002  0.000037
               *** Restarting incremental Fock matrix formation ***
  7  -1033.31892608  -0.0000141389  0.000244  0.001238  0.007550  0.000086
  8  -1033.31892433   0.0000017494  0.000234  0.000687  0.001443  0.000018
  9  -1033.31892960  -0.0000052688  0.000031  0.000242  0.001479  0.000017
 10  -1033.31892951   0.0000000905  0.000038  0.000131  0.000319  0.000002
 11  -1033.31892968  -0.0000001657  0.000007  0.000026  0.000247  0.000003
 12  -1033.31892967   0.0000000058  0.000008  0.000017  0.000070  0.000001
                  ***Gradient check signals convergence***
              ***Rediagonalizing the Fockian in SOSCF/NRSCF***

               *****************************************************
               *                     SUCCESS                       *
               *           SCF CONVERGED AFTER  13 CYCLES          *
               *****************************************************

Old exchange energy                            =    -27.991342848 Eh
New exchange energy                            =    -27.991329928 Eh
Exchange energy change after final integration =      0.000012920 Eh
Total energy after final integration           =  -1033.318916761 Eh
Final COS-X integration done in                =    89.063 sec

----------------
TOTAL SCF ENERGY
----------------

Total Energy       :        -1033.31891676 Eh          -28118.03722 eV

Components:
Nuclear Repulsion  :         1939.50580700 Eh           52776.63612 eV
Electronic Energy  :        -2972.82472376 Eh          -80894.67334 eV
One Electron Energy:        -5255.17372435 Eh         -143000.54705 eV
Two Electron Energy:         2282.34900059 Eh           62105.87371 eV
Max COSX asymmetry :            0.00000115 Eh               0.00003 eV
CPCM Dielectric    :           -0.02808430 Eh              -0.76421 eV

Virial components:
Potential Energy   :        -2061.41153444 Eh          -56093.85961 eV
Kinetic Energy     :         1028.09261768 Eh           27975.82239 eV
Virial Ratio       :            2.00508349


DFT components:
N(Alpha)           :       83.999955259225 electrons
N(Beta)            :       83.999955259225 electrons
N(Total)           :      167.999910518449 electrons
E(X)               :     -111.251204627460 Eh       
E(C)               :       -7.375114899392 Eh       
E(XC)              :     -118.626319526852 Eh       
DFET-embed. en.    :        0.000000000000 Eh       
CPCM Solvation Model Properties:
Surface-charge          :           -0.03903369
Charge-correction       :           -0.00042041 Eh              -0.01144 eV
Free-energy (cav+disp)  :  This term is not implemented in the current solvation scheme

---------------
SCF CONVERGENCE
---------------

  Last Energy change         ...   -1.1341e-08  Tolerance :   1.0000e-08
  Last MAX-Density change    ...    2.9976e-15  Tolerance :   1.0000e-07
  Last RMS-Density change    ...    1.8966e-17  Tolerance :   5.0000e-09
  Last Orbital Gradient      ...    1.9276e-06  Tolerance :   1.0000e-05
  Last Orbital Rotation      ...    1.1845e-05  Tolerance :   1.0000e-05

             **** THE GBW FILE WAS UPDATED (NMU-1_ES.gbw) ****
             **** DENSITY NMU-1_ES.scfp WAS UPDATED ****
             **** ENERGY FILE WAS UPDATED (NMU-1_ES.en.tmp) ****
             **** THE GBW FILE WAS UPDATED (NMU-1_ES.gbw) ****
             **** DENSITY NMU-1_ES.scfp WAS UPDATED ****
----------------
ORBITAL ENERGIES
----------------

  NO   OCC          E(Eh)            E(eV) 
   0   2.0000     -19.194401      -522.3062 
   1   2.0000     -19.113431      -520.1029 
   2   2.0000     -14.347605      -390.4182 
   3   2.0000     -14.321177      -389.6990 
   4   2.0000     -10.310150      -280.5535 
   5   2.0000     -10.248411      -278.8734 
   6   2.0000     -10.232821      -278.4492 
   7   2.0000     -10.211404      -277.8664 
   8   2.0000     -10.210488      -277.8415 
   9   2.0000     -10.206837      -277.7421 
  10   2.0000     -10.203542      -277.6525 
  11   2.0000     -10.203287      -277.6456 
  12   2.0000     -10.201853      -277.6065 
  13   2.0000     -10.201368      -277.5933 
  14   2.0000     -10.189670      -277.2750 
  15   2.0000     -10.187003      -277.2024 
  16   2.0000     -10.185022      -277.1485 
  17   2.0000     -10.184594      -277.1369 
  18   2.0000     -10.183003      -277.0936 
  19   2.0000     -10.181116      -277.0422 
  20   2.0000     -10.173939      -276.8470 
  21   2.0000     -10.173082      -276.8236 
  22   2.0000     -10.170303      -276.7480 
  23   2.0000     -10.170143      -276.7437 
  24   2.0000      -1.117317       -30.4037 
  25   2.0000      -1.030480       -28.0408 
  26   2.0000      -0.970212       -26.4008 
  27   2.0000      -0.949514       -25.8376 
  28   2.0000      -0.869727       -23.6665 
  29   2.0000      -0.843885       -22.9633 
  30   2.0000      -0.829140       -22.5620 
  31   2.0000      -0.804332       -21.8870 
  32   2.0000      -0.782346       -21.2887 
  33   2.0000      -0.774262       -21.0687 
  34   2.0000      -0.764879       -20.8134 
  35   2.0000      -0.744674       -20.2636 
  36   2.0000      -0.692991       -18.8572 
  37   2.0000      -0.684887       -18.6367 
  38   2.0000      -0.663039       -18.0422 
  39   2.0000      -0.643932       -17.5223 
  40   2.0000      -0.639242       -17.3947 
  41   2.0000      -0.631167       -17.1749 
  42   2.0000      -0.617773       -16.8105 
  43   2.0000      -0.598555       -16.2875 
  44   2.0000      -0.565114       -15.3775 
  45   2.0000      -0.539836       -14.6897 
  46   2.0000      -0.533319       -14.5123 
  47   2.0000      -0.528442       -14.3796 
  48   2.0000      -0.511092       -13.9075 
  49   2.0000      -0.495803       -13.4915 
  50   2.0000      -0.484259       -13.1774 
  51   2.0000      -0.478957       -13.0331 
  52   2.0000      -0.475355       -12.9351 
  53   2.0000      -0.472192       -12.8490 
  54   2.0000      -0.465845       -12.6763 
  55   2.0000      -0.454056       -12.3555 
  56   2.0000      -0.449932       -12.2433 
  57   2.0000      -0.438478       -11.9316 
  58   2.0000      -0.434426       -11.8213 
  59   2.0000      -0.432380       -11.7657 
  60   2.0000      -0.423786       -11.5318 
  61   2.0000      -0.418692       -11.3932 
  62   2.0000      -0.410724       -11.1764 
  63   2.0000      -0.408245       -11.1089 
  64   2.0000      -0.406093       -11.0504 
  65   2.0000      -0.402264       -10.9462 
  66   2.0000      -0.399538       -10.8720 
  67   2.0000      -0.379546       -10.3280 
  68   2.0000      -0.372744       -10.1429 
  69   2.0000      -0.365514        -9.9461 
  70   2.0000      -0.361230        -9.8296 
  71   2.0000      -0.353906        -9.6303 
  72   2.0000      -0.345275        -9.3954 
  73   2.0000      -0.342899        -9.3308 
  74   2.0000      -0.338589        -9.2135 
  75   2.0000      -0.324869        -8.8401 
  76   2.0000      -0.320864        -8.7311 
  77   2.0000      -0.302173        -8.2225 
  78   2.0000      -0.293336        -7.9821 
  79   2.0000      -0.285356        -7.7649 
  80   2.0000      -0.267395        -7.2762 
  81   2.0000      -0.248848        -6.7715 
  82   2.0000      -0.240278        -6.5383 
  83   2.0000      -0.193327        -5.2607 
  84   0.0000      -0.080740        -2.1970 
  85   0.0000      -0.036840        -1.0025 
  86   0.0000      -0.025480        -0.6933 
  87   0.0000      -0.010380        -0.2824 
  88   0.0000       0.003820         0.1039 
  89   0.0000       0.035880         0.9763 
  90   0.0000       0.049474         1.3463 
  91   0.0000       0.059956         1.6315 
  92   0.0000       0.064846         1.7646 
  93   0.0000       0.066016         1.7964 
  94   0.0000       0.068396         1.8612 
  95   0.0000       0.076348         2.0775 
  96   0.0000       0.081127         2.2076 
  97   0.0000       0.090032         2.4499 
  98   0.0000       0.093458         2.5431 
  99   0.0000       0.094923         2.5830 
 100   0.0000       0.099483         2.7071 
 101   0.0000       0.101258         2.7554 
 102   0.0000       0.108018         2.9393 
 103   0.0000       0.111950         3.0463 
 104   0.0000       0.120725         3.2851 
 105   0.0000       0.125015         3.4018 
 106   0.0000       0.127176         3.4606 
 107   0.0000       0.132262         3.5990 
 108   0.0000       0.137123         3.7313 
 109   0.0000       0.140904         3.8342 
 110   0.0000       0.145513         3.9596 
 111   0.0000       0.148213         4.0331 
 112   0.0000       0.149454         4.0668 
 113   0.0000       0.154618         4.2074 
 114   0.0000       0.166005         4.5172 
 115   0.0000       0.169988         4.6256 
 116   0.0000       0.174928         4.7600 
 117   0.0000       0.176595         4.8054 
 118   0.0000       0.182879         4.9764 
 119   0.0000       0.183798         5.0014 
 120   0.0000       0.186693         5.0802 
 121   0.0000       0.191099         5.2001 
 122   0.0000       0.195273         5.3137 
 123   0.0000       0.197519         5.3748 
 124   0.0000       0.202632         5.5139 
 125   0.0000       0.207513         5.6467 
 126   0.0000       0.213210         5.8017 
 127   0.0000       0.216848         5.9007 
 128   0.0000       0.220213         5.9923 
 129   0.0000       0.222287         6.0487 
 130   0.0000       0.223292         6.0761 
 131   0.0000       0.225878         6.1464 
 132   0.0000       0.229452         6.2437 
 133   0.0000       0.236397         6.4327 
 134   0.0000       0.240278         6.5383 
 135   0.0000       0.243215         6.6182 
 136   0.0000       0.246147         6.6980 
 137   0.0000       0.257688         7.0120 
 138   0.0000       0.260991         7.1019 
 139   0.0000       0.264677         7.2022 
 140   0.0000       0.266715         7.2577 
 141   0.0000       0.273858         7.4521 
 142   0.0000       0.277796         7.5592 
 143   0.0000       0.284352         7.7376 
 144   0.0000       0.290033         7.8922 
 145   0.0000       0.293079         7.9751 
 146   0.0000       0.302684         8.2365 
 147   0.0000       0.303471         8.2579 
 148   0.0000       0.312968         8.5163 
 149   0.0000       0.315234         8.5780 
 150   0.0000       0.317975         8.6526 
 151   0.0000       0.321621         8.7518 
 152   0.0000       0.327942         8.9237 
 153   0.0000       0.333449         9.0736 
 154   0.0000       0.339703         9.2438 
 155   0.0000       0.343180         9.3384 
 156   0.0000       0.346420         9.4266 
 157   0.0000       0.349256         9.5037 
 158   0.0000       0.353387         9.6162 
 159   0.0000       0.355432         9.6718 
 160   0.0000       0.363707         9.8970 
 161   0.0000       0.366376         9.9696 
 162   0.0000       0.366691         9.9782 
 163   0.0000       0.375288        10.2121 
 164   0.0000       0.380607        10.3568 
 165   0.0000       0.387485        10.5440 
 166   0.0000       0.392640        10.6843 
 167   0.0000       0.398193        10.8354 
 168   0.0000       0.400207        10.8902 
 169   0.0000       0.409273        11.1369 
 170   0.0000       0.411919        11.2089 
 171   0.0000       0.412577        11.2268 
 172   0.0000       0.415128        11.2962 
 173   0.0000       0.424431        11.5493 
 174   0.0000       0.427684        11.6379 
 175   0.0000       0.428270        11.6538 
 176   0.0000       0.429397        11.6845 
 177   0.0000       0.435504        11.8507 
 178   0.0000       0.437193        11.8966 
 179   0.0000       0.437500        11.9050 
 180   0.0000       0.439154        11.9500 
 181   0.0000       0.440838        11.9958 
 182   0.0000       0.447244        12.1701 
 183   0.0000       0.451609        12.2889 
 184   0.0000       0.453856        12.3500 
 185   0.0000       0.456675        12.4268 
 186   0.0000       0.462670        12.5899 
 187   0.0000       0.465022        12.6539 
 188   0.0000       0.468411        12.7461 
 189   0.0000       0.468714        12.7544 
 190   0.0000       0.473433        12.8828 
 191   0.0000       0.477536        12.9944 
 192   0.0000       0.479213        13.0401 
 193   0.0000       0.483116        13.1463 
 194   0.0000       0.491770        13.3817 
 195   0.0000       0.494641        13.4599 
 196   0.0000       0.497832        13.5467 
 197   0.0000       0.503573        13.7029 
 198   0.0000       0.507288        13.8040 
 199   0.0000       0.514566        14.0021 
 200   0.0000       0.518640        14.1129 
 201   0.0000       0.520416        14.1612 
 202   0.0000       0.523830        14.2541 
 203   0.0000       0.534240        14.5374 
 204   0.0000       0.536591        14.6014 
 205   0.0000       0.546665        14.8755 
 206   0.0000       0.554218        15.0810 
 207   0.0000       0.558515        15.1980 
 208   0.0000       0.567364        15.4388 
 209   0.0000       0.571618        15.5545 
 210   0.0000       0.577851        15.7241 
 211   0.0000       0.584011        15.8917 
 212   0.0000       0.597453        16.2575 
 213   0.0000       0.599274        16.3071 
 214   0.0000       0.609920        16.5968 
 215   0.0000       0.616974        16.7887 
 216   0.0000       0.623883        16.9767 
 217   0.0000       0.626232        17.0406 
 218   0.0000       0.628395        17.0995 
 219   0.0000       0.634934        17.2774 
 220   0.0000       0.639910        17.4128 
 221   0.0000       0.647176        17.6106 
 222   0.0000       0.650906        17.7121 
 223   0.0000       0.652961        17.7680 
 224   0.0000       0.658959        17.9312 
 225   0.0000       0.665597        18.1118 
 226   0.0000       0.671637        18.2762 
 227   0.0000       0.677342        18.4314 
 228   0.0000       0.684244        18.6192 
 229   0.0000       0.687367        18.7042 
 230   0.0000       0.693214        18.8633 
 231   0.0000       0.698577        19.0092 
 232   0.0000       0.701703        19.0943 
 233   0.0000       0.705693        19.2029 
 234   0.0000       0.715331        19.4652 
 235   0.0000       0.718354        19.5474 
 236   0.0000       0.721687        19.6381 
 237   0.0000       0.728000        19.8099 
 238   0.0000       0.732820        19.9410 
 239   0.0000       0.740918        20.1614 
 240   0.0000       0.746469        20.3124 
 241   0.0000       0.749445        20.3934 
 242   0.0000       0.754429        20.5291 
 243   0.0000       0.759350        20.6630 
 244   0.0000       0.762627        20.7521 
 245   0.0000       0.769264        20.9327 
 246   0.0000       0.777150        21.1473 
 247   0.0000       0.778498        21.1840 
 248   0.0000       0.782355        21.2890 
 249   0.0000       0.791718        21.5437 
 250   0.0000       0.793875        21.6024 
 251   0.0000       0.799871        21.7656 
 252   0.0000       0.812296        22.1037 
 253   0.0000       0.817336        22.2408 
 254   0.0000       0.819905        22.3107 
 255   0.0000       0.834617        22.7111 
 256   0.0000       0.835886        22.7456 
 257   0.0000       0.838570        22.8186 
 258   0.0000       0.848485        23.0885 
 259   0.0000       0.849185        23.1075 
 260   0.0000       0.858637        23.3647 
 261   0.0000       0.861030        23.4298 
 262   0.0000       0.868487        23.6327 
 263   0.0000       0.871045        23.7023 
 264   0.0000       0.874051        23.7841 
 265   0.0000       0.879615        23.9355 
 266   0.0000       0.884862        24.0783 
 267   0.0000       0.893500        24.3134 
 268   0.0000       0.898695        24.4547 
 269   0.0000       0.905240        24.6328 
 270   0.0000       0.910281        24.7700 
 271   0.0000       0.917101        24.9556 
 272   0.0000       0.926323        25.2065 
 273   0.0000       0.930758        25.3272 
 274   0.0000       0.932814        25.3832 
 275   0.0000       0.951253        25.8849 
 276   0.0000       0.956913        26.0389 
 277   0.0000       0.959991        26.1227 
 278   0.0000       0.963207        26.2102 
 279   0.0000       0.975800        26.5529 
 280   0.0000       0.985881        26.8272 
 281   0.0000       0.995061        27.0770 
 282   0.0000       1.009662        27.4743 
 283   0.0000       1.013353        27.5747 
 284   0.0000       1.029297        28.0086 
 285   0.0000       1.035558        28.1790 
 286   0.0000       1.052007        28.6266 
 287   0.0000       1.059481        28.8299 
 288   0.0000       1.060315        28.8526 
 289   0.0000       1.074282        29.2327 
 290   0.0000       1.077792        29.3282 
 291   0.0000       1.081082        29.4177 
 292   0.0000       1.096181        29.8286 
 293   0.0000       1.099010        29.9056 
 294   0.0000       1.108938        30.1757 
 295   0.0000       1.112354        30.2687 
 296   0.0000       1.119353        30.4591 
 297   0.0000       1.129818        30.7439 
 298   0.0000       1.140851        31.0441 
 299   0.0000       1.143412        31.1138 
 300   0.0000       1.152464        31.3601 
 301   0.0000       1.155067        31.4310 
 302   0.0000       1.170183        31.8423 
 303   0.0000       1.174165        31.9507 
 304   0.0000       1.193036        32.4641 
 305   0.0000       1.201057        32.6824 
 306   0.0000       1.208949        32.8972 
 307   0.0000       1.212608        32.9967 
 308   0.0000       1.230975        33.4965 
 309   0.0000       1.233356        33.5613 
 310   0.0000       1.238121        33.6910 
 311   0.0000       1.243043        33.8249 
 312   0.0000       1.248435        33.9716 
 313   0.0000       1.253959        34.1220 
 314   0.0000       1.254801        34.1449 
 315   0.0000       1.267756        34.4974 
 316   0.0000       1.280273        34.8380 
 317   0.0000       1.286972        35.0203 
 318   0.0000       1.293215        35.1902 
 319   0.0000       1.301743        35.4222 
 320   0.0000       1.305293        35.5188 
 321   0.0000       1.323228        36.0069 
 322   0.0000       1.325796        36.0767 
 323   0.0000       1.326835        36.1050 
 324   0.0000       1.335661        36.3452 
 325   0.0000       1.337621        36.3985 
 326   0.0000       1.345556        36.6144 
 327   0.0000       1.349315        36.7167 
 328   0.0000       1.354161        36.8486 
 329   0.0000       1.357498        36.9394 
 330   0.0000       1.372667        37.3522 
 331   0.0000       1.380630        37.5688 
 332   0.0000       1.386225        37.7211 
 333   0.0000       1.399725        38.0884 
 334   0.0000       1.404821        38.2271 
 335   0.0000       1.417347        38.5680 
 336   0.0000       1.418940        38.6113 
 337   0.0000       1.431152        38.9436 
 338   0.0000       1.437785        39.1241 
 339   0.0000       1.441518        39.2257 
 340   0.0000       1.447149        39.3789 
 341   0.0000       1.456709        39.6391 
 342   0.0000       1.462849        39.8061 
 343   0.0000       1.473422        40.0939 
 344   0.0000       1.484557        40.3969 
 345   0.0000       1.488504        40.5042 
 346   0.0000       1.490870        40.5686 
 347   0.0000       1.497600        40.7518 
 348   0.0000       1.506987        41.0072 
 349   0.0000       1.522414        41.4270 
 350   0.0000       1.529622        41.6231 
 351   0.0000       1.534682        41.7608 
 352   0.0000       1.546262        42.0759 
 353   0.0000       1.555194        42.3190 
 354   0.0000       1.557250        42.3749 
 355   0.0000       1.562329        42.5131 
 356   0.0000       1.580240        43.0005 
 357   0.0000       1.591903        43.3179 
 358   0.0000       1.595142        43.4060 
 359   0.0000       1.597900        43.4811 
 360   0.0000       1.598832        43.5064 
 361   0.0000       1.612560        43.8800 
 362   0.0000       1.614523        43.9334 
 363   0.0000       1.617498        44.0144 
 364   0.0000       1.618459        44.0405 
 365   0.0000       1.618821        44.0503 
 366   0.0000       1.637537        44.5596 
 367   0.0000       1.639388        44.6100 
 368   0.0000       1.651321        44.9347 
 369   0.0000       1.655025        45.0355 
 370   0.0000       1.664054        45.2812 
 371   0.0000       1.668919        45.4136 
 372   0.0000       1.672274        45.5049 
 373   0.0000       1.685467        45.8639 
 374   0.0000       1.687469        45.9184 
 375   0.0000       1.695124        46.1267 
 376   0.0000       1.707461        46.4624 
 377   0.0000       1.707827        46.4723 
 378   0.0000       1.718113        46.7522 
 379   0.0000       1.725747        46.9600 
 380   0.0000       1.727515        47.0081 
 381   0.0000       1.742582        47.4181 
 382   0.0000       1.744036        47.4576 
 383   0.0000       1.750273        47.6274 
 384   0.0000       1.761716        47.9387 
 385   0.0000       1.764752        48.0214 
 386   0.0000       1.773982        48.2725 
 387   0.0000       1.781796        48.4851 
 388   0.0000       1.785464        48.5850 
 389   0.0000       1.791959        48.7617 
 390   0.0000       1.812301        49.3152 
 391   0.0000       1.821121        49.5552 
 392   0.0000       1.822161        49.5835 
 393   0.0000       1.825252        49.6676 
 394   0.0000       1.835614        49.9496 
 395   0.0000       1.847780        50.2807 
 396   0.0000       1.855562        50.4924 
 397   0.0000       1.866410        50.7876 
 398   0.0000       1.868602        50.8473 
 399   0.0000       1.886130        51.3242 
 400   0.0000       1.901955        51.7548 
 401   0.0000       1.907516        51.9062 
 402   0.0000       1.921690        52.2918 
 403   0.0000       1.931138        52.5489 
 404   0.0000       1.956190        53.2306 
 405   0.0000       1.964475        53.4561 
 406   0.0000       1.969490        53.5925 
 407   0.0000       1.993532        54.2468 
 408   0.0000       1.996487        54.3272 
 409   0.0000       2.003416        54.5157 
 410   0.0000       2.014981        54.8304 
 411   0.0000       2.018727        54.9323 
 412   0.0000       2.025006        55.1032 
 413   0.0000       2.025463        55.1157 
 414   0.0000       2.031376        55.2766 
 415   0.0000       2.040945        55.5369 
 416   0.0000       2.051756        55.8311 
 417   0.0000       2.055300        55.9276 
 418   0.0000       2.070532        56.3420 
 419   0.0000       2.086463        56.7756 
 420   0.0000       2.110340        57.4253 
 421   0.0000       2.115457        57.5645 
 422   0.0000       2.130585        57.9762 
 423   0.0000       2.141954        58.2855 
 424   0.0000       2.150468        58.5172 
 425   0.0000       2.160365        58.7865 
 426   0.0000       2.177922        59.2643 
 427   0.0000       2.180474        59.3337 
 428   0.0000       2.195905        59.7536 
 429   0.0000       2.203468        59.9594 
 430   0.0000       2.215042        60.2744 
 431   0.0000       2.222688        60.4824 
 432   0.0000       2.229805        60.6761 
 433   0.0000       2.235323        60.8262 
 434   0.0000       2.240343        60.9628 
 435   0.0000       2.251555        61.2679 
 436   0.0000       2.259569        61.4860 
 437   0.0000       2.272535        61.8388 
 438   0.0000       2.277782        61.9816 
 439   0.0000       2.282268        62.1037 
 440   0.0000       2.293529        62.4101 
 441   0.0000       2.298306        62.5401 
 442   0.0000       2.301840        62.6363 
 443   0.0000       2.317962        63.0750 
 444   0.0000       2.325308        63.2749 
 445   0.0000       2.326307        63.3020 
 446   0.0000       2.343800        63.7780 
 447   0.0000       2.355613        64.0995 
 448   0.0000       2.364575        64.3434 
 449   0.0000       2.370386        64.5015 
 450   0.0000       2.383800        64.8665 
 451   0.0000       2.395836        65.1940 
 452   0.0000       2.414998        65.7154 
 453   0.0000       2.418311        65.8056 
 454   0.0000       2.434234        66.2389 
 455   0.0000       2.441496        66.4365 
 456   0.0000       2.445372        66.5420 
 457   0.0000       2.452129        66.7258 
 458   0.0000       2.466597        67.1195 
 459   0.0000       2.472272        67.2740 
 460   0.0000       2.509131        68.2769 
 461   0.0000       2.514308        68.4178 
 462   0.0000       2.528298        68.7985 
 463   0.0000       2.544553        69.2408 
 464   0.0000       2.557893        69.6038 
 465   0.0000       2.566578        69.8401 
 466   0.0000       2.579265        70.1854 
 467   0.0000       2.595859        70.6369 
 468   0.0000       2.608123        70.9706 
 469   0.0000       2.617941        71.2378 
 470   0.0000       2.626430        71.4688 
 471   0.0000       2.629401        71.5497 
 472   0.0000       2.635030        71.7028 
 473   0.0000       2.649461        72.0955 
 474   0.0000       2.660890        72.4065 
 475   0.0000       2.663684        72.4825 
 476   0.0000       2.666065        72.5473 
 477   0.0000       2.681221        72.9597 
 478   0.0000       2.688880        73.1681 
 479   0.0000       2.693589        73.2963 
 480   0.0000       2.696306        73.3702 
 481   0.0000       2.698233        73.4227 
 482   0.0000       2.703330        73.5613 
 483   0.0000       2.710134        73.7465 
 484   0.0000       2.729476        74.2728 
 485   0.0000       2.738439        74.5167 
 486   0.0000       2.741229        74.5926 
 487   0.0000       2.746424        74.7340 
 488   0.0000       2.758733        75.0689 
 489   0.0000       2.762099        75.1605 
 490   0.0000       2.774520        75.4985 
 491   0.0000       2.775025        75.5123 
 492   0.0000       2.785125        75.7871 
 493   0.0000       2.790724        75.9395 
 494   0.0000       2.793491        76.0147 
 495   0.0000       2.802698        76.2653 
 496   0.0000       2.806909        76.3799 
 497   0.0000       2.817647        76.6721 
 498   0.0000       2.821996        76.7904 
 499   0.0000       2.829545        76.9958 
 500   0.0000       2.836037        77.1725 
 501   0.0000       2.846032        77.4445 
 502   0.0000       2.853165        77.6386 
 503   0.0000       2.858122        77.7734 
 504   0.0000       2.863397        77.9170 
 505   0.0000       2.869835        78.0922 
 506   0.0000       2.879372        78.3517 
 507   0.0000       2.885935        78.5303 
 508   0.0000       2.887914        78.5841 
 509   0.0000       2.893706        78.7417 
 510   0.0000       2.895359        78.7867 
 511   0.0000       2.900949        78.9388 
 512   0.0000       2.916096        79.3510 
 513   0.0000       2.924132        79.5697 
 514   0.0000       2.931582        79.7724 
 515   0.0000       2.936578        79.9084 
 516   0.0000       2.952944        80.3537 
 517   0.0000       2.958206        80.4969 
 518   0.0000       2.973466        80.9121 
 519   0.0000       2.979687        81.0814 
 520   0.0000       2.984187        81.2039 
 521   0.0000       2.996256        81.5323 
 522   0.0000       3.009312        81.8875 
 523   0.0000       3.019274        82.1586 
 524   0.0000       3.024413        82.2984 
 525   0.0000       3.033862        82.5556 
 526   0.0000       3.038709        82.6875 
 527   0.0000       3.044079        82.8336 
 528   0.0000       3.061762        83.3148 
 529   0.0000       3.067830        83.4799 
 530   0.0000       3.075103        83.6778 
 531   0.0000       3.081126        83.8417 
 532   0.0000       3.084751        83.9403 
 533   0.0000       3.098138        84.3046 
 534   0.0000       3.103133        84.4405 
 535   0.0000       3.109115        84.6033 
 536   0.0000       3.117380        84.8282 
 537   0.0000       3.118256        84.8521 
 538   0.0000       3.122035        84.9549 
 539   0.0000       3.139720        85.4361 
 540   0.0000       3.142945        85.5239 
 541   0.0000       3.148660        85.6794 
 542   0.0000       3.151274        85.7505 
 543   0.0000       3.159420        85.9722 
 544   0.0000       3.164909        86.1216 
 545   0.0000       3.173364        86.3516 
 546   0.0000       3.181874        86.5832 
 547   0.0000       3.188740        86.7700 
 548   0.0000       3.198530        87.0364 
 549   0.0000       3.205748        87.2329 
 550   0.0000       3.216173        87.5165 
 551   0.0000       3.227032        87.8120 
 552   0.0000       3.237296        88.0913 
 553   0.0000       3.246234        88.3345 
 554   0.0000       3.252876        88.5153 
 555   0.0000       3.258808        88.6767 
 556   0.0000       3.267155        88.9038 
 557   0.0000       3.273777        89.0840 
 558   0.0000       3.282555        89.3229 
 559   0.0000       3.287225        89.4499 
 560   0.0000       3.296805        89.7106 
 561   0.0000       3.304344        89.9158 
 562   0.0000       3.309637        90.0598 
 563   0.0000       3.322311        90.4047 
 564   0.0000       3.327158        90.5366 
 565   0.0000       3.334411        90.7339 
 566   0.0000       3.337146        90.8083 
 567   0.0000       3.342551        90.9554 
 568   0.0000       3.350145        91.1621 
 569   0.0000       3.351342        91.1947 
 570   0.0000       3.361682        91.4760 
 571   0.0000       3.371002        91.7296 
 572   0.0000       3.375429        91.8501 
 573   0.0000       3.381003        92.0018 
 574   0.0000       3.404906        92.6522 
 575   0.0000       3.416891        92.9783 
 576   0.0000       3.420250        93.0697 
 577   0.0000       3.440843        93.6301 
 578   0.0000       3.451093        93.9090 
 579   0.0000       3.466596        94.3309 
 580   0.0000       3.473005        94.5053 
 581   0.0000       3.486292        94.8668 
 582   0.0000       3.491068        94.9968 
 583   0.0000       3.513926        95.6188 
 584   0.0000       3.518443        95.7417 
 585   0.0000       3.523037        95.8667 
 586   0.0000       3.534920        96.1901 
 587   0.0000       3.543845        96.4329 
 588   0.0000       3.545618        96.4812 
 589   0.0000       3.549938        96.5987 
 590   0.0000       3.570283        97.1523 
 591   0.0000       3.572153        97.2032 
 592   0.0000       3.591959        97.7422 
 593   0.0000       3.608827        98.2012 
 594   0.0000       3.634278        98.8937 
 595   0.0000       3.640705        99.0686 
 596   0.0000       3.668959        99.8374 
 597   0.0000       3.671944        99.9187 
 598   0.0000       3.693582       100.5075 
 599   0.0000       3.698336       100.6368 
 600   0.0000       3.704222       100.7970 
 601   0.0000       3.714383       101.0735 
 602   0.0000       3.732351       101.5624 
 603   0.0000       3.763634       102.4137 
 604   0.0000       3.766551       102.4931 
 605   0.0000       3.788000       103.0767 
 606   0.0000       3.807206       103.5994 
 607   0.0000       3.820047       103.9488 
 608   0.0000       3.826368       104.1208 
 609   0.0000       3.843078       104.5755 
 610   0.0000       3.866900       105.2237 
 611   0.0000       3.882343       105.6439 
 612   0.0000       3.891901       105.9040 
 613   0.0000       3.925816       106.8269 
 614   0.0000       3.936819       107.1263 
 615   0.0000       3.943618       107.3113 
 616   0.0000       3.952337       107.5486 
 617   0.0000       3.961061       107.7859 
 618   0.0000       3.979292       108.2820 
 619   0.0000       4.000507       108.8593 
 620   0.0000       4.010826       109.1401 
 621   0.0000       4.021050       109.4183 
 622   0.0000       4.040440       109.9460 
 623   0.0000       4.049544       110.1937 
 624   0.0000       4.084474       111.1442 
 625   0.0000       4.124337       112.2289 
 626   0.0000       4.136080       112.5485 
 627   0.0000       4.184136       113.8561 
 628   0.0000       4.196812       114.2011 
 629   0.0000       4.230247       115.1109 
 630   0.0000       4.248835       115.6167 
 631   0.0000       4.284219       116.5795 
 632   0.0000       4.291037       116.7650 
 633   0.0000       4.352026       118.4246 
 634   0.0000       4.390445       119.4701 
 635   0.0000       4.411938       120.0549 
 636   0.0000       4.452572       121.1606 
 637   0.0000       4.486103       122.0731 
 638   0.0000       4.530072       123.2695 
 639   0.0000       4.635533       126.1393 
 640   0.0000       4.740717       129.0015 
 641   0.0000       4.828275       131.3840 
 642   0.0000       4.894320       133.1812 
 643   0.0000       4.998820       136.0248 
 644   0.0000       5.048508       137.3769 
 645   0.0000       5.131361       139.6314 
 646   0.0000       5.150487       140.1519 
 647   0.0000       5.368177       146.0755 
 648   0.0000       5.526913       150.3950 
 649   0.0000       5.724026       155.7587 
 650   0.0000       6.314618       171.8295 
 651   0.0000       6.416736       174.6083 
 652   0.0000       6.444366       175.3601 
 653   0.0000       6.545264       178.1057 
 654   0.0000       6.604171       179.7086 
 655   0.0000       6.707267       182.5140 
 656   0.0000       6.722550       182.9299 
 657   0.0000       6.777265       184.4188 
 658   0.0000       7.070878       192.4084 
 659   0.0000       7.187934       195.5936 
 660   0.0000      21.753933       591.9546 
 661   0.0000      21.819301       593.7334 
 662   0.0000      22.069337       600.5372 
 663   0.0000      22.104647       601.4980 
 664   0.0000      22.114033       601.7534 
 665   0.0000      22.182065       603.6047 
 666   0.0000      22.207822       604.3056 
 667   0.0000      22.251253       605.4874 
[...]
 14:    167.39   0.001271    6.42  0.002369  (-0.039120  0.024656 -0.015180)
 15:    193.53   0.000223    1.12  0.000359  (-0.018807 -0.001943  0.001145)
 16:    215.23   0.000418    2.11  0.000606  ( 0.020075 -0.011320  0.008647)
 17:    248.85   0.001428    7.22  0.001791  ( 0.029783 -0.027991 -0.010980)
 18:    269.52   0.000183    0.92  0.000212  (-0.013865 -0.003597 -0.002521)
 19:    305.01   0.001124    5.68  0.001150  (-0.007894 -0.015873  0.028909)
 20:    318.74   0.000323    1.63  0.000316  ( 0.003408 -0.013945 -0.010507)
 21:    337.47   0.007209   36.43  0.006666  ( 0.070233 -0.036966  0.019159)
 22:    353.34   0.000241    1.22  0.000213  ( 0.009521  0.010116 -0.004439)
 23:    378.37   0.000895    4.52  0.000738  (-0.025048  0.010452  0.001298)
 24:    381.43   0.001044    5.28  0.000854  ( 0.025848 -0.002006  0.013491)
 25:    402.35   0.000795    4.02  0.000616  ( 0.024781 -0.000905 -0.001188)
 26:    415.56   0.002537   12.82  0.001905  ( 0.040881 -0.007429 -0.013372)
 27:    439.92   0.006008   30.36  0.004262  (-0.048290  0.043869  0.002396)
 28:    454.47   0.007437   37.58  0.005106  ( 0.066326 -0.025185  0.008546)
 29:    473.66   0.012387   62.60  0.008161  (-0.087393  0.022493 -0.004148)
 30:    516.84   0.000094    0.48  0.000057  (-0.002438  0.007051  0.001082)
 31:    527.21   0.003067   15.50  0.001815  (-0.038664  0.013441 -0.011822)
 32:    529.22   0.001134    5.73  0.000669  (-0.019807  0.007520  0.014829)
 33:    550.51   0.005181   26.18  0.002937  (-0.050155  0.005550 -0.019760)
 34:    590.02   0.008896   44.96  0.004705  (-0.065747  0.019242 -0.003496)
 35:    609.14   0.000848    4.28  0.000434  (-0.002239 -0.020509 -0.002926)
 36:    624.76   0.001965    9.93  0.000982  (-0.029658 -0.008671  0.005173)
 37:    635.88   0.002633   13.31  0.001292  ( 0.012907 -0.030838 -0.013222)
 38:    660.13   0.002846   14.38  0.001346  (-0.023362 -0.006634 -0.027492)
 39:    691.80   0.004039   20.41  0.001822  ( 0.041956  0.003875 -0.006832)
 40:    702.08   0.000642    3.25  0.000285  (-0.011736 -0.009568 -0.007499)
 41:    708.75   0.020250  102.34  0.008916  (-0.029299 -0.040465  0.080127)
 42:    721.34   0.001252    6.33  0.000542  (-0.020394 -0.008776  0.006992)
 43:    738.88   0.000542    2.74  0.000229  (-0.012517  0.008378 -0.001471)
 44:    754.29   0.001705    8.62  0.000706  (-0.001706 -0.001990  0.026433)
 45:    780.43   0.003910   19.76  0.001563  (-0.031383  0.022994 -0.007059)
 46:    815.34   0.006966   35.21  0.002666  ( 0.003976  0.024098 -0.045495)
 47:    852.88   0.000464    2.34  0.000170  ( 0.009843  0.005013 -0.006908)
 48:    859.56   0.003642   18.41  0.001322  (-0.028867  0.010063 -0.019691)
 49:    869.74   0.002948   14.90  0.001058  (-0.018677  0.026538  0.002161)
 50:    883.10   0.002037   10.29  0.000720  (-0.014498  0.011212  0.019591)
 51:    889.63   0.003815   19.28  0.001338  (-0.029656 -0.006006  0.020557)
 52:    896.65   0.002499   12.63  0.000870  (-0.018601 -0.000646  0.022873)
 53:    904.11   0.008902   44.99  0.003073  (-0.053413  0.008387 -0.012220)
 54:    913.80   0.000602    3.04  0.000206  (-0.007929 -0.011393  0.003602)
 55:    938.58   0.002065   10.43  0.000687  ( 0.013196 -0.020096  0.010418)
 56:    942.48   0.006248   31.57  0.002069  (-0.038981  0.023392  0.001422)
 57:    979.50   0.029224  147.69  0.009311  ( 0.087119 -0.041300  0.003892)
 58:    995.83   0.000152    0.77  0.000048  (-0.004888 -0.004783  0.000976)
 59:   1021.19   0.003921   19.81  0.001198  (-0.029946 -0.005251 -0.016547)
 60:   1023.78   0.000334    1.69  0.000102  (-0.008732  0.004046  0.003022)
 61:   1038.26   0.000917    4.63  0.000275  (-0.002678  0.009577  0.013289)
 62:   1050.38   0.004129   20.87  0.001227  ( 0.032906  0.010054  0.006540)
 63:   1057.47   0.001979   10.00  0.000584  (-0.003257  0.021382  0.010784)
 64:   1085.26   0.007886   39.85  0.002268  (-0.047386  0.001553  0.004461)
 65:   1089.71   0.003542   17.90  0.001014  ( 0.024228 -0.020168 -0.004527)
 66:   1093.51   0.001212    6.12  0.000346  (-0.007030  0.003175 -0.016921)
 67:   1108.61   0.003931   19.87  0.001107  ( 0.031636 -0.006820  0.007693)
 68:   1130.27   0.045084  227.84  0.012448  (-0.094634  0.057734  0.012597)
 69:   1149.67   0.028260  142.82  0.007671  ( 0.066405 -0.056215 -0.010056)
 70:   1171.94   0.147667  746.25  0.039321  (-0.193504  0.042037 -0.010484)
 71:   1198.03   0.042071  212.61  0.010959  (-0.091862  0.049976  0.004755)
 72:   1202.32   0.141692  716.05  0.036776  (-0.187829  0.037130 -0.010863)
 73:   1203.56   0.050767  256.56  0.013163  ( 0.098142 -0.059190  0.005262)
 74:   1217.23   0.020907  105.65  0.005360  (-0.068209  0.025510 -0.007531)
 75:   1222.49   0.025296  127.83  0.006457  (-0.064404  0.047524  0.007125)
 76:   1225.00   0.005608   28.34  0.001429  ( 0.026440 -0.026709 -0.004037)
 77:   1267.68   0.071412  360.89  0.017579  ( 0.127342 -0.036644  0.004537)
 78:   1272.05   0.019785   99.99  0.004854  ( 0.061414  0.023543  0.022975)
 79:   1290.11   0.045998  232.45  0.011126  (-0.100381  0.030541  0.010834)
 80:   1293.63   0.013252   66.97  0.003197  (-0.055566  0.009352 -0.004644)
 81:   1303.13   0.078347  395.94  0.018762  (-0.133199  0.022920 -0.022245)
 82:   1310.71   0.000283    1.43  0.000067  (-0.002756  0.006574 -0.004061)
 83:   1323.56   0.298941  1510.73  0.070483  (-0.234032  0.124952  0.009963)
 84:   1329.79   0.005572   28.16  0.001308  (-0.031839  0.016306  0.005285)
 85:   1350.53   0.000953    4.82  0.000220  ( 0.005352  0.013646  0.002320)
 86:   1362.13   0.002835   14.32  0.000649  (-0.001370  0.023801  0.009002)
 87:   1367.94   0.009287   46.93  0.002119  (-0.044857 -0.003616 -0.009670)
 88:   1377.39   0.000980    4.95  0.000222  (-0.002185 -0.012739 -0.007411)
 89:   1380.29   0.013907   70.28  0.003144  (-0.055746  0.005623 -0.002235)
 90:   1382.03   0.005161   26.08  0.001165  (-0.022142  0.024548  0.008510)
 91:   1390.83   0.041645  210.46  0.009344  ( 0.063031 -0.072169 -0.012758)
 92:   1416.61   0.023020  116.33  0.005071  (-0.062824  0.033020  0.005828)
 93:   1433.99   0.034332  173.50  0.007471  (-0.076124  0.040703 -0.004424)
 94:   1444.93   0.000359    1.82  0.000078  ( 0.004715 -0.006515 -0.003597)
 95:   1461.97   0.002162   10.92  0.000461  ( 0.020999  0.003747  0.002531)
 96:   1469.17   0.001170    5.91  0.000249  ( 0.004598 -0.005733  0.013948)
 97:   1473.98   0.004890   24.71  0.001035  ( 0.020821 -0.024471 -0.001750)
 98:   1479.50   0.040011  202.20  0.008439  ( 0.086368 -0.029565  0.010278)
 99:   1482.88   0.010887   55.02  0.002291  ( 0.047476 -0.004686  0.003877)
100:   1483.25   0.006673   33.72  0.001404  (-0.035196  0.007171  0.010667)
101:   1509.60   0.014073   71.12  0.002909  (-0.049761 -0.019726 -0.006619)
102:   1511.95   0.055056  278.23  0.011364  (-0.093339  0.050465  0.010230)
103:   1528.07   0.035094  177.35  0.007167  (-0.082305 -0.007248 -0.018448)
104:   1551.82   0.008889   44.92  0.001788  (-0.027191  0.029875  0.012478)
105:   1585.47   0.013689   69.18  0.002694  ( 0.031036 -0.041334 -0.004761)
106:   1595.63   0.177707  898.06  0.034755  ( 0.185040 -0.007919  0.021269)
107:   1649.39   0.289236  1461.68  0.054723  ( 0.207499  0.092167  0.056327)
108:   2948.08   0.016279   82.27  0.001723  ( 0.018861 -0.023342 -0.028681)
109:   2953.45   0.048722  246.22  0.005148  ( 0.060882 -0.006693 -0.037370)
110:   2997.56   0.007833   39.59  0.000815  (-0.021402 -0.017096  0.008074)
111:   3004.03   0.006135   31.00  0.000637  ( 0.006181  0.010095  0.022298)
112:   3039.73   0.007703   38.93  0.000791  ( 0.008210 -0.007735  0.025761)
113:   3043.39   0.010846   54.81  0.001112  (-0.003236  0.020986 -0.025714)
114:   3073.20   0.008240   41.64  0.000837  (-0.005788 -0.018843 -0.021171)
115:   3085.25   0.003473   17.55  0.000351  (-0.015198  0.008659 -0.006729)
116:   3089.97   0.007037   35.56  0.000711  ( 0.019956  0.017657 -0.000810)
117:   3091.09   0.010018   50.63  0.001011  (-0.029806 -0.008015  0.007665)
118:   3093.40   0.030193  152.58  0.003046  ( 0.040795 -0.036064  0.009005)
119:   3093.97   0.007802   39.43  0.000787  (-0.003223  0.012978  0.024660)
120:   3162.36   0.003142   15.88  0.000310  ( 0.015311 -0.008691  0.000222)
121:   3170.60   0.002380   12.03  0.000234  (-0.010095 -0.010410 -0.004898)
122:   3173.89   0.003942   19.92  0.000388  ( 0.018012 -0.000863  0.007901)
123:   3188.14   0.005904   29.83  0.000578  ( 0.023207 -0.002933  0.005541)
124:   3223.58   0.000138    0.70  0.000013  ( 0.000023 -0.003183 -0.001805)
125:   3241.24   0.000507    2.56  0.000049  ( 0.005122 -0.004034  0.002511)

* The epsilon (eps) is given for a Dirac delta lineshape.
** The dipole moment derivative (T) already includes vibrational overlap.

The first frequency considered to be a vibration is 6
The total number of vibrations considered is 120


--------------------------
THERMOCHEMISTRY AT 298.15K
--------------------------

Temperature         ... 298.15 K
Pressure            ... 1.00 atm
Total Mass          ... 318.38 AMU

Throughout the following assumptions are being made:
  (1) The electronic state is orbitally nondegenerate
  (2) There are no thermally accessible electronically excited states
  (3) Hindered rotations indicated by low frequency modes are not
      treated as such but are treated as vibrations and this may
      cause some error
  (4) All equations used are the standard statistical mechanics
      equations for an ideal gas
  (5) All vibrations are strictly harmonic

freq.      23.06  E(vib)   ...       0.56 
freq.      46.43  E(vib)   ...       0.53 
freq.      61.57  E(vib)   ...       0.51 
freq.      69.83  E(vib)   ...       0.50 
freq.      76.45  E(vib)   ...       0.49 
freq.      91.86  E(vib)   ...       0.47 
freq.     123.72  E(vib)   ...       0.43 
freq.     139.41  E(vib)   ...       0.42 
freq.     167.39  E(vib)   ...       0.39 
freq.     193.53  E(vib)   ...       0.36 
freq.     215.23  E(vib)   ...       0.34 
freq.     248.85  E(vib)   ...       0.31 
freq.     269.52  E(vib)   ...       0.29 
freq.     305.01  E(vib)   ...       0.26 
freq.     318.74  E(vib)   ...       0.25 
freq.     337.47  E(vib)   ...       0.24 
freq.     353.34  E(vib)   ...       0.22 
freq.     378.37  E(vib)   ...       0.21 
freq.     381.43  E(vib)   ...       0.21 
freq.     402.35  E(vib)   ...       0.19 
freq.     415.56  E(vib)   ...       0.18 
freq.     439.92  E(vib)   ...       0.17 
freq.     454.47  E(vib)   ...       0.16 
freq.     473.66  E(vib)   ...       0.15 
freq.     516.84  E(vib)   ...       0.13 
freq.     527.21  E(vib)   ...       0.13 
freq.     529.22  E(vib)   ...       0.13 
freq.     550.51  E(vib)   ...       0.12 
freq.     590.02  E(vib)   ...       0.10 
freq.     609.14  E(vib)   ...       0.10 
freq.     624.76  E(vib)   ...       0.09 
freq.     635.88  E(vib)   ...       0.09 
freq.     660.13  E(vib)   ...       0.08 
freq.     691.80  E(vib)   ...       0.07 
freq.     702.08  E(vib)   ...       0.07 
freq.     708.75  E(vib)   ...       0.07 
freq.     721.34  E(vib)   ...       0.07 
freq.     738.88  E(vib)   ...       0.06 
freq.     754.29  E(vib)   ...       0.06 
freq.     780.43  E(vib)   ...       0.05 
freq.     815.34  E(vib)   ...       0.05 
freq.     852.88  E(vib)   ...       0.04 
freq.     859.56  E(vib)   ...       0.04 
freq.     869.74  E(vib)   ...       0.04 
freq.     883.10  E(vib)   ...       0.04 
freq.     889.63  E(vib)   ...       0.04 
freq.     896.65  E(vib)   ...       0.03 
freq.     904.11  E(vib)   ...       0.03 
freq.     913.80  E(vib)   ...       0.03 
freq.     938.58  E(vib)   ...       0.03 
freq.     942.48  E(vib)   ...       0.03 
freq.     979.50  E(vib)   ...       0.03 
freq.     995.83  E(vib)   ...       0.02 
freq.    1021.19  E(vib)   ...       0.02 
freq.    1023.78  E(vib)   ...       0.02 
freq.    1038.26  E(vib)   ...       0.02 
freq.    1050.38  E(vib)   ...       0.02 
freq.    1057.47  E(vib)   ...       0.02 
freq.    1085.26  E(vib)   ...       0.02 
freq.    1089.71  E(vib)   ...       0.02 
freq.    1093.51  E(vib)   ...       0.02 
freq.    1108.61  E(vib)   ...       0.02 
freq.    1130.27  E(vib)   ...       0.01 
freq.    1149.67  E(vib)   ...       0.01 
freq.    1171.94  E(vib)   ...       0.01 
freq.    1198.03  E(vib)   ...       0.01 
freq.    1202.32  E(vib)   ...       0.01 
freq.    1203.56  E(vib)   ...       0.01 
freq.    1217.23  E(vib)   ...       0.01 
freq.    1222.49  E(vib)   ...       0.01 
freq.    1225.00  E(vib)   ...       0.01 
freq.    1267.68  E(vib)   ...       0.01 
freq.    1272.05  E(vib)   ...       0.01 
freq.    1290.11  E(vib)   ...       0.01 
freq.    1293.63  E(vib)   ...       0.01 
freq.    1303.13  E(vib)   ...       0.01 
freq.    1310.71  E(vib)   ...       0.01 
freq.    1323.56  E(vib)   ...       0.01 
freq.    1329.79  E(vib)   ...       0.01 
freq.    1350.53  E(vib)   ...       0.01 
freq.    1362.13  E(vib)   ...       0.01 
freq.    1367.94  E(vib)   ...       0.01 
freq.    1377.39  E(vib)   ...       0.01 
freq.    1380.29  E(vib)   ...       0.01 
freq.    1382.03  E(vib)   ...       0.01 
freq.    1390.83  E(vib)   ...       0.00 
freq.    1416.61  E(vib)   ...       0.00 
freq.    1433.99  E(vib)   ...       0.00 
freq.    1444.93  E(vib)   ...       0.00 
freq.    1461.97  E(vib)   ...       0.00 
freq.    1469.17  E(vib)   ...       0.00 
freq.    1473.98  E(vib)   ...       0.00 
freq.    1479.50  E(vib)   ...       0.00 
freq.    1482.88  E(vib)   ...       0.00 
freq.    1483.25  E(vib)   ...       0.00 
freq.    1509.60  E(vib)   ...       0.00 
freq.    1511.95  E(vib)   ...       0.00 
freq.    1528.07  E(vib)   ...       0.00 
freq.    1551.82  E(vib)   ...       0.00 
freq.    1585.47  E(vib)   ...       0.00 
freq.    1595.63  E(vib)   ...       0.00 
freq.    1649.39  E(vib)   ...       0.00 
freq.    2948.08  E(vib)   ...       0.00 
freq.    2953.45  E(vib)   ...       0.00 
freq.    2997.56  E(vib)   ...       0.00 
freq.    3004.03  E(vib)   ...       0.00 
freq.    3039.73  E(vib)   ...       0.00 
freq.    3043.39  E(vib)   ...       0.00 
freq.    3073.20  E(vib)   ...       0.00 
freq.    3085.25  E(vib)   ...       0.00 
freq.    3089.97  E(vib)   ...       0.00 
freq.    3091.09  E(vib)   ...       0.00 
freq.    3093.40  E(vib)   ...       0.00 
freq.    3093.97  E(vib)   ...       0.00 
freq.    3162.36  E(vib)   ...       0.00 
freq.    3170.60  E(vib)   ...       0.00 
freq.    3173.89  E(vib)   ...       0.00 
freq.    3188.14  E(vib)   ...       0.00 
freq.    3223.58  E(vib)   ...       0.00 
freq.    3241.24  E(vib)   ...       0.00 

------------
INNER ENERGY
------------

The inner energy is: U= E(el) + E(ZPE) + E(vib) + E(rot) + E(trans)
    E(el)   - is the total energy from the electronic structure calculation
              = E(kin-el) + E(nuc-el) + E(el-el) + E(nuc-nuc)
    E(ZPE)  - the the zero temperature vibrational energy from the frequency calculation
    E(vib)  - the the finite temperature correction to E(ZPE) due to population
              of excited vibrational states
    E(rot)  - is the rotational thermal energy
    E(trans)- is the translational thermal energy

Summary of contributions to the inner energy U:
Electronic energy                ...  -1033.20957475 Eh
Zero point energy                ...      0.33742226 Eh     211.74 kcal/mol
Thermal vibrational correction   ...      0.01609010 Eh      10.10 kcal/mol
Thermal rotational correction    ...      0.00141627 Eh       0.89 kcal/mol
Thermal translational correction ...      0.00141627 Eh       0.89 kcal/mol
-----------------------------------------------------------------------
Total thermal energy                  -1032.85322985 Eh


Summary of corrections to the electronic energy:
(perhaps to be used in another calculation)
Total thermal correction                  0.01892265 Eh      11.87 kcal/mol
Non-thermal (ZPE) correction              0.33742226 Eh     211.74 kcal/mol
-----------------------------------------------------------------------
Total correction                          0.35634490 Eh     223.61 kcal/mol


--------
ENTHALPY
--------

The enthalpy is H = U + kB*T
                kB is Boltzmann's constant
Total free energy                 ...  -1032.85322985 Eh 
Thermal Enthalpy correction       ...      0.00094421 Eh       0.59 kcal/mol
-----------------------------------------------------------------------
Total Enthalpy                    ...  -1032.85228564 Eh


Note: Only C1 symmetry has been detected, increase convergence thresholds 
      if your molecule has a higher symmetry. Symmetry factor of 1.0 is   
      used for the rotational entropy correction. 
 

Note: Rotational entropy computed according to Herzberg 
Infrared and Raman Spectra, Chapter V,1, Van Nostrand Reinhold, 1945 
Point Group:  C1, Symmetry Number:   1  
Rotational constants in cm-1:     0.021198     0.003944     0.003362 

Vibrational entropy computed according to the QRRHO of S. Grimme
Chem.Eur.J. 2012 18 9955


-------
ENTROPY
-------

The entropy contributions are T*S = T*(S(el)+S(vib)+S(rot)+S(trans))
     S(el)   - electronic entropy
     S(vib)  - vibrational entropy
     S(rot)  - rotational entropy
     S(trans)- translational entropy
The entropies will be listed as multiplied by the temperature to get
units of energy

Electronic entropy                ...      0.00000000 Eh      0.00 kcal/mol
Vibrational entropy               ...      0.02767467 Eh     17.37 kcal/mol
Rotational entropy                ...      0.01663214 Eh     10.44 kcal/mol
Translational entropy             ...      0.02051137 Eh     12.87 kcal/mol
-----------------------------------------------------------------------
Final entropy term                ...      0.06481818 Eh     40.67 kcal/mol

In case the symmetry of your molecule has not been determined correctly
or in case you have a reason to use a different symmetry number we print 
out the resulting rotational entropy values for sn=1,12 :
 --------------------------------------------------------
|  sn= 1 | S(rot)=       0.01663214 Eh     10.44 kcal/mol|
|  sn= 2 | S(rot)=       0.01597768 Eh     10.03 kcal/mol|
|  sn= 3 | S(rot)=       0.01559485 Eh      9.79 kcal/mol|
|  sn= 4 | S(rot)=       0.01532323 Eh      9.62 kcal/mol|
|  sn= 5 | S(rot)=       0.01511254 Eh      9.48 kcal/mol|
|  sn= 6 | S(rot)=       0.01494039 Eh      9.38 kcal/mol|
|  sn= 7 | S(rot)=       0.01479485 Eh      9.28 kcal/mol|
|  sn= 8 | S(rot)=       0.01466877 Eh      9.20 kcal/mol|
|  sn= 9 | S(rot)=       0.01455756 Eh      9.13 kcal/mol|
|  sn=10 | S(rot)=       0.01445808 Eh      9.07 kcal/mol|
|  sn=11 | S(rot)=       0.01436809 Eh      9.02 kcal/mol|
|  sn=12 | S(rot)=       0.01428594 Eh      8.96 kcal/mol|
 --------------------------------------------------------


-------------------
GIBBS FREE ENERGY
-------------------

The Gibbs free energy is G = H - T*S

Total enthalpy                    ...  -1032.85228564 Eh 
Total entropy correction          ...     -0.06481818 Eh    -40.67 kcal/mol
-----------------------------------------------------------------------
Final Gibbs free energy         ...  -1032.91710382 Eh

For completeness - the Gibbs free energy minus the electronic energy
G-E(el)                           ...      0.29247093 Eh    183.53 kcal/mol



Timings for individual modules:

Sum of individual times         ...   425870.263 sec (=7097.838 min)
GTO integral calculation        ...       33.953 sec (=   0.566 min)   0.0 %
SCF iterations                  ...     1400.393 sec (=  23.340 min)   0.3 %
CIS module                      ...      898.131 sec (=  14.969 min)   0.2 %
SCF Gradient evaluation         ...      809.762 sec (=  13.496 min)   0.2 %
Numerical frequency calculation ...   422728.023 sec (=7045.467 min)  99.3 %
                             ****ORCA TERMINATED NORMALLY****
TOTAL RUN TIME: 4 days 21 hours 45 minutes 11 seconds 639 msec
