
                                 *****************
                                 * O   R   C   A *
                                 *****************

                                            #,                                       
                                            ###                                      
                                            ####                                     
                                            #####                                    
                                            ######                                   
                                           ########,                                 
                                     ,,################,,,,,                         
                               ,,#################################,,                 
                          ,,##########################################,,             
                       ,#########################################, ''#####,          
                    ,#############################################,,   '####,        
                  ,##################################################,,,,####,       
                ,###########''''           ''''###############################       
              ,#####''   ,,,,##########,,,,          '''####'''          '####       
            ,##' ,,,,###########################,,,                        '##       
           ' ,,###''''                  '''############,,,                           
         ,,##''                                '''############,,,,        ,,,,,,###''
      ,#''                                            '''#######################'''  
     '                                                          ''''####''''         
             ,#######,   #######,   ,#######,      ##                                
            ,#'     '#,  ##    ##  ,#'     '#,    #''#        ,####,   ,####,        
            ##       ##  ##   ,#'  ##            #'  '#       #'       #'  '#        
            ##       ##  #######   ##           ,######,      #####,   #    #        
            '#,     ,#'  ##    ##  '#,     ,#' ,#      #,     #,   #   #,  ,#        
             '#######'   ##     ##  '#######'  #'      '#     '####' # '####'        



                #########################################################
                #                        -***-                          #
                #          Department of theory and spectroscopy        #
                #                                                       #
                #                      Frank Neese                      #
                #                                                       #
                #     Directorship, Architecture, Infrastructure        #
                #                    SHARK, DRIVERS                     #
                #        Core code/Algorithms in most modules           #
                #                                                       #
                #        Max Planck Institute fuer Kohlenforschung      #
                #                Kaiser Wilhelm Platz 1                 #
                #                 D-45470 Muelheim/Ruhr                 #
                #                      Germany                          #
                #                                                       #
                #                  All rights reserved                  #
                #                        -***-                          #
                #########################################################


                         Program Version 6.0.1  -  RELEASE   -


 With contributions from (in alphabetic order):
[Max-Planck-Institut fuer Kohlenforschung]                               
  Daniel Aravena         : Magnetic Suceptibility                        
  Michael Atanasov       : Ab Initio Ligand Field Theory (pilot matlab implementation)
  Alexander A. Auer      : GIAO ZORA, VPT2 properties, NMR spectrum      
  Ute Becker             : All parallelization in ORCA, NUMFREQ, NUMCALC 
  Giovanni Bistoni       : ED, misc. LED, open-shell LED, HFLD           
  Martin Brehm           : Molecular dynamics                            
  Dmytro Bykov           : pre 5.0 version of the SCF Hessian            
  Marcos Casanova-Páez   : Triplet and SCS-CIS(D). UHF-(DLPNO)-IP/EA/STEOM-CCSD. UHF-CVS-IP/STEOM-CCSD   
  Vijay G. Chilkuri      : MRCI spin determinant printing, contributions to CSF-ICE 
  Pauline Colinet        : FMM embedding                                 
  Dipayan Datta          : RHF DLPNO-CCSD density                        
  Achintya Kumar Dutta   : EOM-CC, STEOM-CC                              
  Nicolas Foglia         : Exact transition moments, OPA infrastructure, MCD improvements    
  Dmitry Ganyushin       : Spin-Orbit,Spin-Spin,Magnetic field MRCI      
  Miquel Garcia-Rates    : C-PCM and meta-GGA Hessian, CCSD/C-PCM, Gaussian charge scheme 
  Tiago L. C. Gouveia    : GS-ROHF, GS-ROCIS                             
  Yang Guo               : DLPNO-NEVPT2, F12-NEVPT2, CIM, IAO-localization        
  Andreas Hansen         : Spin unrestricted coupled pair/coupled cluster methods 
  Ingolf Harden          : AUTO-CI MPn and infrastructure                
  Benjamin Helmich-Paris : MC-RPA, TRAH-(SCF,CASSCF), AVAS, COSX integrals, SCF dyn. polar. 
  Lee Huntington         : MR-EOM, pCC                                   
  Robert Izsak           : Overlap fitted RIJCOSX, COSX-SCS-MP3, EOM     
  Riya Kayal             : Wick's Theorem for AUTO-CI, AUTO-CI UHF-CCSDT 
  Emily Kempfer          : AUTO-CI, RHF CISDT and CCSDT                  
  Christian Kollmar      : KDIIS, OOCD, Brueckner-CCSD(T), CCSD density, CASPT2, CASPT2-K, improved NEVPT2 
  Axel Koslowski         : Symmetry handling                             
  Simone Kossmann        : meta-GGA functionals, TD-DFT gradient, OOMP2, (MP2 Hessian; deprecated post 5.0) 
  Lucas Lang             : DCDCAS                                        
  Marvin Lechner         : AUTO-CI (C++ implementation), FIC-MRCC        
  Spencer Leger          : CASSCF response                               
  Dagmar Lenk            : GEPOL surface, SMD, ORCA-2-JSON               
  Dimitrios Liakos       : Extrapolation schemes; Compound Job, initial MDCI parallelization 
  Dimitrios Manganas     : Further ROCIS development; embedding schemes. LFT, Crystal Embedding 
  Dimitrios Pantazis     : SARC Basis sets                               
  Anastasios Papadopoulos: AUTO-CI, single reference methods and gradients 
  Taras Petrenko         : pre 6.0 DFT Hessian and TD-DFT gradient, (ASA, deprecated), ECA, 1-Electron XAS/XES, NRVS 
  Peter Pinski           : DLPNO-MP2, DLPNO-MP2 Gradient                 
  Christoph Reimann      : Effective Core Potentials                     
  Marius Retegan         : Local ZFS, SOC                                
  Christoph Riplinger    : Optimizer, TS searches, QM/MM, DLPNO-CCSD(T), (RO)-DLPNO pert. Triples 
  Michael Roemelt        : Original ROCIS implementation                 
  Masaaki Saitow         : Open-shell DLPNO-CCSD energy and density      
  Barbara Sandhoefer     : DKH picture change effects                    
  Kantharuban Sivalingam : CASSCF convergence/infrastructure, NEVPT2 and variants, FIC-MRCI 
  Bernardo de Souza      : ESD, SOC TD-DFT                               
  Georgi L. Stoychev     : AutoAux, RI-MP2 NMR, DLPNO-MP2 response, X2C  
  Van Anh Tran           : RI-MP2 g-tensors                              
  Willem Van den Heuvel  : Paramagnetic NMR                              
  Zikuan Wang            : NOTCH, Electric field optimization            
  Frank Wennmohs         : Technical directorship and infrastructure     
  Hang Xu                : AUTO-CI-Response properties                   
                                                                         
[FACCTs GmbH]                                                            
  Markus Bursch, Miquel Garcia-Rates, Christoph Riplinger, Bernardo de Souza, Georgi L. Stoychev 
                                                                 
  APM, Basis sets (HGBS, AHGBS, def-TZVP (Ac-Lr), def2-XVPD (La-Lu)), CI-OPT, improved COSX, DLPNO-Multilevel,           
  DOCKER, DRACO, updates on ESD, GOAT, IRC, LR-CPCM, MBIS, meta-GGA TD-DFT gradient, ML-optimized integration grids, 
  MM, NACMEs, nearIR, NEB, NEB-TS, NL-DFT gradient (VV10), 2- and 3-layer-ONIOM, interface openCOSMO-RS, QMMM,   
  Crystal-QMMM, SF, symmetry and pop. for TD-DFT, r2SCAN hybrids, SOLVATOR                                   
                                                                         
[Other institutions]                                                     
  V. Asgeirsson          : NEB                                           
  Christoph Bannwarth    : sTDA-DFT, sTD-DFT, PBEh-3c, B97-3c, D3        
  Sebastian Ehlert       : rSCAN, r2SCAN, r2SCAN-3c, D4, dhf basis sets  
  Marvin Friede          : D4 for Fr, Ra, Ac-Lr                          
  Lars Goerigk           : TD-DFT with DH, B97 family of functionals     
  Stefan Grimme          : VdW corrections, initial TS optimization, DFT functionals, gCP, sTDA/sTD-DF 
  Waldemar Hujo          : DFT-NL                                        
  H. Jonsson             : NEB                                           
  Holger Kruse           : gCP                                           
  Marcel Mueller         : wB97X-3c, vDZP basis set                      
  Hagen Neugebauer       : wr2SCAN                                       
  Tobias Risthaus        : range-separated hybrid DFT                    
  Lukas Wittmann         : regularized MP2, r2SCAN double-hybrids, wr2SCAN        
                                                                         
We gratefully acknowledge several colleagues who have allowed us to      
interface, adapt or use parts of their codes:                            
  Ed Valeev, F. Pavosevic, A. Kumar             : LibInt (2-el integral package), F12 methods 
  Garnet Chan, S. Sharma, J. Yang, R. Olivares  : DMRG                   
  Ulf Ekstrom                                   : XCFun DFT Library      
  Mihaly Kallay                                 : mrcc  (arbitrary order and MRCC methods)
  Frank Weinhold                                : gennbo (NPA and NBO analysis)           
  Simon Mueller                                 : openCOSMO-RS                            
  Christopher J. Cramer and Donald G. Truhlar   : smd solvation model                     
  S Lehtola, MJT Oliveira, MAL Marques          : LibXC Library                           
  Liviu Ungur et al                             : ANISO software                          


 Your calculation uses the libint2 library for the computation of 2-el integrals
 For citations please refer to: http://libint.valeyev.net

 Your ORCA version has been built with support for libXC version: 6.2.2
 For citations please refer to: https://libxc.gitlab.io

 This ORCA versions uses:
   CBLAS   interface :  Fast vector & matrix operations
   LAPACKE interface :  Fast linear algebra routines
   SCALAPACK package :  Parallel linear algebra routines
   Shared memory     :  Shared parallel matrices
   BLAS/LAPACK       :  OpenBLAS 0.3.27  USE64BITINT DYNAMIC_ARCH NO_AFFINITY Zen SINGLE_THREADED
        Core in use  :  Zen
   Copyright (c) 2011-2014, The OpenBLAS Project


Warning: RI is on but no J-basis has been assigned. Assigning Def2/J (nothing to worry about!)
================================================================================

----- Orbital basis set information -----
Your calculation utilizes the basis: 6-311G*
   H, Li - Ne  : R. Krishnan, J. S. Binkley, R. Seeger and J. A. Pople, J. Chem. Phys. 72, 650 (1980).
   Na - Ar     : A. D. McLean and G. S. Chandler J. Chem. Phys. 72, 5639, (1980).
   K  - Ca     : J.-P. Blaudeau, M. P. McGrath, L. A. Curtiss and L. Radom, J. Chem. Phys. 107, 5016 (1997).
   Ga - Kr     : L. A. Curtiss, M. P. McGrath, J.-P. Blandeau, N. E. Davis, R. C. Binning and L. Radom, J. Chem. Phys. 103, 6104 (1995).
   Pol./Diff.
   H, Li - Cl  : T. Clark, J. Chandrasekhar and P. v. R. Schleyer, J. Comp. Chem. 4, 294 (1983).
   H - Ne      : M. J. Frisch, J. A. Pople and J. S. Binkley, J. Chem. Phys. 80, 3265 (1984).

----- AuxJ basis set information -----
Your calculation utilizes the auxiliary basis: def2/J
   F. Weigend, Phys. Chem. Chem. Phys. 8, 1057 (2006).

================================================================================
                                        WARNINGS
                       Please study these warnings very carefully!
================================================================================


WARNING: Geometry Optimization
  ===> : Switching off AutoStart
         For restart on a previous wavefunction, please use MOREAD

================================================================================
                                       INPUT FILE
================================================================================
NAME = 1globalminimum.inp
|  1> ! B3LYP/G OPT FREQ 6-311G* CPCM(Water)
|  2> 
|  3> * xyz 0 1 
|  4> C  -3.40418561955923770768 -0.99631005054325905146 -0.39945067512701076806
|  5> C  -2.86003569140734725806 -1.89319737171454383073 -1.31588925260829570085
|  6> C  -1.52887018819225151134 -1.81824350011512470005 -1.63656634391916422366
|  7> C  -2.60480732717914786889 -0.05925789879808396332 0.21926755552678772743
|  8> C  -1.22033769793655166858 0.00321833407012269129 -0.04013563057553640873
|  9> O  -3.22566434923104861099 0.79631054626813357888 1.11602588975354932721
| 10> C  -0.69392435573664201787 -0.87394852637880804380 -1.01946021458804714221
| 11> C  0.68135913817745608068 -0.78262821445513786056 -1.38362455440802945006
| 12> C  1.50131024759285325310 0.13170998989336724083 -0.81882887272621129870
| 13> C  -0.32484590173190724949 0.91100032385525531176 0.62930817786401893610
| 14> C  1.02433153950373667662 0.99542214410545248882 0.20545608859965067139
| 15> N  -0.77862398343765260034 1.64587489910303053087 1.65548728667281430660
| 16> C  0.02415575420194841089 2.50404719237332029635 2.23639577404294520591
| 17> C  1.35217334624980178859 2.70635534334686900237 1.85559653171739702415
| 18> C  1.85614085926917060654 1.93104584547808699746 0.84025730580607438380
| 19> C  -3.08669262984488712576 2.13358631053785074982 0.90178775083343065688
| 20> O  -2.70907129774251975718 2.59409262115029859430 -0.16866818650521045453
| 21> N  -3.52585656746685760510 2.86634732026504313041 1.92751668859112501586
| 22> C  -3.93788174192128792583 2.31792630761306517329 3.19986195960180497266
| 23> C  -3.49943758584627495622 4.30934757360949571847 1.85212018671582345775
| 24> H  -2.80218822978963322257 4.70966289254423653432 2.58929216364634440239
| 25> H  -4.49678694042663540387 4.70410433577167275132 2.04692192723900356910
| 26> H  -3.17863676761233371337 4.60230594469961573623 0.85495701784443145499
| 27> H  -4.95964236921039702821 2.63307399981554723922 3.41430917114515120048
| 28> H  -3.27773194158414282739 2.68659686653387019817 3.98608468432912976809
| 29> H  -3.88924873719626074120 1.23491202143540190761 3.16842757927880125379
| 30> H  -1.10316177703179940650 -2.48255890405942647448 -2.37236565104667151971
| 31> H  -4.45706345951978377684 -1.01155610100678128305 -0.16534282105293701681
| 32> H  -3.49905283168166425511 -2.62368833292888714581 -1.78560943801850058321
| 33> H  1.04633787113746778985 -1.45858146877639605066 -2.14168485970076227787
| 34> H  2.53564154296639321373 0.21825426054947449916 -1.11626243196565955174
| 35> H  -0.41114150143429017970 3.05848059475524491901 3.05675355085114919262
| 36> H  1.95737169720178050270 3.44109275586225260568 2.36102610844557814218
| 37> H  2.88421748112794373853 2.02304193786384445275 0.52141551218080395280
| 38> *
| 39> 
| 40>                          ****END OF INPUT****
================================================================================

                       *****************************
                       * Geometry Optimization Run *
                       *****************************

Geometry optimization settings:
Update method            Update   .... BFGS
Choice of coordinates    CoordSys .... (2022) Redundant Internals
Initial Hessian          InHess   .... Almloef's Model
Max. no of cycles        MaxIter  .... 102

Convergence Tolerances:
Energy Change            TolE     ....  5.0000e-06 Eh
Max. Gradient            TolMAXG  ....  3.0000e-04 Eh/bohr
RMS Gradient             TolRMSG  ....  1.0000e-04 Eh/bohr
Max. Displacement        TolMAXD  ....  4.0000e-03 bohr
RMS Displacement         TolRMSD  ....  2.0000e-03 bohr
Strict Convergence                .... False

------------------------------------------------------------------------------
                        ORCA OPTIMIZATION COORDINATE SETUP
------------------------------------------------------------------------------

The optimization will be done in redundant internal coordinates (2022)
Making redundant internal coordinates   ...  (2022 redundants) done
Evaluating the initial hessian          ...  (Almloef) done
Evaluating the coordinates              ...  done
Calculating the B-matrix                .... done
Calculating the G-matrix                .... done
Diagonalizing the G-matrix              .... done
Small eigenvalue found = 5.831e-03
Small eigenvalue found = 1.272e-02
Small eigenvalue found = 2.450e-02
The first mode is                       ....   78
The number of degrees of freedom        ....   96

    -----------------------------------------------------------------
                    Redundant Internal Coordinates


    -----------------------------------------------------------------
         Definition                    Initial Value    Approx d2E/dq
    -----------------------------------------------------------------
      1. B(C   1,C   0)                  1.3930         0.618016   
      2. B(C   2,C   1)                  1.3713         0.669236   
      3. B(C   3,C   0)                  1.3784         0.652086   
      4. B(C   4,C   3)                  1.4099         0.580651   
      5. B(O   5,C   3)                  1.3862         0.567399   
      6. B(C   6,C   4)                  1.4162         0.567473   
      7. B(C   6,C   2)                  1.4034         0.594694   
      8. B(C   7,C   6)                  1.4256         0.548185   
      9. B(C   8,C   7)                  1.3518         0.718960   
     10. B(C   9,C   4)                  1.4402         0.519606   
     11. B(C  10,C   9)                  1.4167         0.566409   
     12. B(C  10,C   8)                  1.4222         0.555082   
     13. B(N  11,C   9)                  1.3413         0.669306   
     14. B(C  12,N  11)                  1.3109         0.748391   
     15. B(C  13,C  12)                  1.3963         0.610572   
     16. B(C  14,C  13)                  1.3733         0.664284   
     17. B(C  14,C  10)                  1.4037         0.594209   
     18. B(C  15,O   5)                  1.3614         0.621501   
     19. B(O  16,C  15)                  1.2250         1.026072   
     20. B(N  17,C  15)                  1.3349         0.685180   
     21. B(C  18,N  17)                  1.4455         0.456427   
     22. B(C  19,N  17)                  1.4452         0.456869   
     23. B(H  20,C  19)                  1.0908         0.359051   
     24. B(H  21,C  19)                  1.0902         0.359866   
     25. B(H  22,C  19)                  1.0877         0.363167   
     26. B(H  23,C  18)                  1.0906         0.359372   
     27. B(H  24,C  18)                  1.0908         0.359033   
     28. B(H  25,C  18)                  1.0846         0.367367   
     29. B(H  26,C   2)                  1.0789         0.375140   
     30. B(H  27,C   0)                  1.0787         0.375365   
     31. B(H  28,C   1)                  1.0782         0.376001   
     32. B(H  29,C   7)                  1.0792         0.374607   
     33. B(H  30,C   8)                  1.0797         0.373958   
     34. B(H  31,C  12)                  1.0816         0.371380   
     35. B(H  32,H  20)                  4.9310         0.000000   
     36. B(H  32,C  13)                  1.0778         0.376664   
     37. B(H  33,C  14)                  1.0803         0.373153   
     38. A(C   1,C   0,C   3)          120.4302         0.437776   
     39. A(C   3,C   0,H  27)          118.5715         0.358460   
     40. A(C   1,C   0,H  27)          120.9956         0.355207   
     41. A(C   2,C   1,H  28)          120.6947         0.360152   
     42. A(C   0,C   1,C   2)          119.8589         0.439832   
     43. A(C   0,C   1,H  28)          119.4264         0.355309   
     44. A(C   1,C   2,H  26)          120.5889         0.360011   
     45. A(C   1,C   2,C   6)          120.7617         0.436790   
     46. A(C   6,C   2,H  26)          118.6490         0.352864   
     47. A(C   4,C   3,O   5)          122.1035         0.419487   
     48. A(C   0,C   3,C   4)          121.1317         0.432888   
     49. A(C   0,C   3,O   5)          116.7580         0.428280   
     50. A(C   3,C   4,C   9)          123.5706         0.415658   
     51. A(C   3,C   4,C   6)          117.6956         0.422238   
     52. A(C   6,C   4,C   9)          118.7328         0.413965   
     53. A(C   3,O   5,C  15)          117.3046         0.421850   
     54. A(C   4,C   6,C   7)          119.7065         0.417927   
     55. A(C   2,C   6,C   7)          120.3118         0.421434   
     56. A(C   2,C   6,C   4)          119.9784         0.424046   
     57. A(C   6,C   7,H  29)          117.7454         0.347962   
     58. A(C   6,C   7,C   8)          121.4501         0.436023   
     59. A(C   8,C   7,H  29)          120.7958         0.364355   
     60. A(C   7,C   8,H  30)          121.3449         0.364247   
     61. A(C  10,C   8,H  30)          118.0993         0.348594   
     62. A(C   7,C   8,C  10)          120.5479         0.437006   
     63. A(C   4,C   9,C  10)          119.3829         0.413827   
     64. A(C  10,C   9,N  11)          121.2279         0.430153   
     65. A(C   4,C   9,N  11)          119.3815         0.423558   
     66. A(C   9,C  10,C  14)          117.9544         0.423842   
     67. A(C   8,C  10,C  14)          122.1251         0.422314   
     68. A(C   8,C  10,C   9)          119.9125         0.418719   
     69. A(C   9,N  11,C  12)          119.3762         0.449369   
     70. A(N  11,C  12,H  31)          115.1651         0.364041   
     71. A(N  11,C  12,C  13)          123.8117         0.444883   
     72. A(C  13,C  12,H  31)          121.0218         0.353838   
     73. A(C  12,C  13,H  32)          120.3290         0.354686   
     74. A(C  12,C  13,C  14)          117.9609         0.438283   
     75. A(C  14,C  13,H  32)          121.7035         0.359805   
     76. A(C  10,C  14,H  33)          119.1590         0.352498   
     77. A(C  10,C  14,C  13)          119.5512         0.436142   
     78. A(C  13,C  14,H  33)          121.2893         0.359231   
     79. A(O  16,C  15,N  17)          124.5090         0.478109   
     80. A(O   5,C  15,N  17)          112.6244         0.436367   
     81. A(O   5,C  15,O  16)          122.5641         0.469612   
     82. A(C  18,N  17,C  19)          115.4649         0.384533   
     83. A(C  15,N  17,C  19)          120.1318         0.412995   
     84. A(C  15,N  17,C  18)          124.1857         0.412925   
     85. A(H  24,C  18,H  25)          109.3447         0.291618   
     86. A(H  23,C  18,H  25)          109.6504         0.291661   
     87. A(N  17,C  18,H  25)          109.9117         0.334314   
     88. A(H  23,C  18,H  24)          109.1242         0.290612   
     89. A(N  17,C  18,H  24)          109.4937         0.333043   
     90. A(N  17,C  18,H  23)          109.2999         0.333095   
     91. A(H  21,C  19,H  22)          109.6401         0.291197   
     92. A(H  20,C  19,H  22)          109.4018         0.291094   
     93. A(N  17,C  19,H  22)          108.7928         0.333730   
     94. A(H  20,C  19,H  21)          109.3377         0.290676   
     95. A(N  17,C  19,H  21)          109.6032         0.333225   
     96. A(N  17,C  19,H  20)          110.0513         0.333099   
     97. D(H  28,C   1,C   0,C   3)    179.6074         0.026419   
     98. D(C   2,C   1,C   0,C   3)     -2.0118         0.026419   
     99. D(H  28,C   1,C   0,H  27)     -1.0057         0.026419   
    100. D(C   2,C   1,C   0,H  27)    177.3751         0.026419   
    101. D(C   6,C   2,C   1,C   0)      2.0719         0.031318   
    102. D(H  26,C   2,C   1,C   0)   -177.6791         0.031318   
    103. D(C   6,C   2,C   1,H  28)   -179.5682         0.031318   
    104. D(H  26,C   2,C   1,H  28)      0.6808         0.031318   
    105. D(O   5,C   3,C   0,C   1)    179.9086         0.029620   
    106. D(C   4,C   3,C   0,H  27)    179.5777         0.029620   
    107. D(C   4,C   3,C   0,C   1)     -1.0207         0.029620   
    108. D(O   5,C   3,C   0,H  27)      0.5070         0.029620   
    109. D(C   6,C   4,C   3,O   5)   -177.1309         0.023166   
    110. D(C   9,C   4,C   3,C   0)   -176.5106         0.023166   
    111. D(C   9,C   4,C   3,O   5)      2.5098         0.023166   
    112. D(C   6,C   4,C   3,C   0)      3.8487         0.023166   
    113. D(C  15,O   5,C   3,C   4)     56.4042         0.023357   
    114. D(C  15,O   5,C   3,C   0)   -124.5349         0.023357   
    115. D(C   7,C   6,C   4,C   9)     -4.0727         0.022082   
    116. D(C   7,C   6,C   4,C   3)    175.5859         0.022082   
    117. D(C   2,C   6,C   4,C   9)    176.5910         0.022082   
    118. D(C   2,C   6,C   4,C   3)     -3.7504         0.022082   
    119. D(C   7,C   6,C   2,H  26)      1.2864         0.024358   
    120. D(C   7,C   6,C   2,C   1)   -178.4693         0.024358   
    121. D(C   4,C   6,C   2,H  26)   -179.3813         0.024358   
    122. D(C   4,C   6,C   2,C   1)      0.8630         0.024358   
    123. D(H  29,C   7,C   6,C   4)   -179.2858         0.020553   
    124. D(H  29,C   7,C   6,C   2)      0.0482         0.020553   
    125. D(C   8,C   7,C   6,C   4)     -0.3528         0.020553   
    126. D(C   8,C   7,C   6,C   2)    178.9813         0.020553   
    127. D(C  10,C   8,C   7,C   6)      2.8210         0.036575   
    128. D(H  30,C   8,C   7,H  29)      0.6796         0.036575   
    129. D(H  30,C   8,C   7,C   6)   -178.2211         0.036575   
    130. D(C  10,C   8,C   7,H  29)   -178.2783         0.036575   
    131. D(N  11,C   9,C   4,C   6)   -172.9638         0.018412   
    132. D(N  11,C   9,C   4,C   3)      7.3990         0.018412   
    133. D(C  10,C   9,C   4,C   6)      6.0342         0.018412   
    134. D(C  10,C   9,C   4,C   3)   -173.6030         0.018412   
    135. D(C  14,C  10,C   9,N  11)     -3.7155         0.021996   
    136. D(C  14,C  10,C   9,C   4)    177.3055         0.021996   
    137. D(C   8,C  10,C   9,N  11)    175.2812         0.021996   
    138. D(C   8,C  10,C   9,C   4)     -3.6977         0.021996   
    139. D(C  14,C  10,C   8,H  30)     -0.7910         0.021092   
    140. D(C  14,C  10,C   8,C   7)    178.2001         0.021092   
    141. D(C   9,C  10,C   8,H  30)   -179.7446         0.021092   
    142. D(C   9,C  10,C   8,C   7)     -0.7535         0.021092   
    143. D(C  12,N  11,C   9,C  10)      3.2515         0.033272   
    144. D(C  12,N  11,C   9,C   4)   -177.7696         0.033272   
    145. D(H  31,C  12,N  11,C   9)   -179.8845         0.042519   
    146. D(C  13,C  12,N  11,C   9)     -0.3110         0.042519   
    147. D(H  32,C  13,C  12,H  31)     -1.6086         0.025750   
    148. D(H  32,C  13,C  12,N  11)    178.8419         0.025750   
    149. D(C  14,C  13,C  12,H  31)    177.4743         0.025750   
    150. D(C  14,C  13,C  12,N  11)     -2.0752         0.025750   
    151. D(H  33,C  14,C  13,H  32)      0.8111         0.030821   
    152. D(H  33,C  14,C  13,C  12)   -178.2585         0.030821   
    153. D(C  10,C  14,C  13,H  32)   -179.4690         0.030821   
    154. D(C  10,C  14,C  13,C  12)      1.4614         0.030821   
    155. D(H  33,C  14,C  10,C   9)   -179.0138         0.024316   
    156. D(H  33,C  14,C  10,C   8)      2.0130         0.024316   
    157. D(C  13,C  14,C  10,C   9)      1.2602         0.024316   
    158. D(C  13,C  14,C  10,C   8)   -177.7129         0.024316   
    159. D(O  16,C  15,O   5,C   3)     16.4443         0.028349   
    160. D(N  17,C  15,O   5,C   3)   -169.6123         0.028349   
    161. D(C  19,N  17,C  15,O  16)     -3.9673         0.038686   
    162. D(C  19,N  17,C  15,O   5)   -177.7724         0.038686   
    163. D(C  18,N  17,C  15,O  16)   -178.3575         0.038686   
    164. D(C  18,N  17,C  15,O   5)      7.8374         0.038686   
    165. D(H  25,C  18,N  17,C  15)     -3.2334         0.017779   
    166. D(H  24,C  18,N  17,C  19)    -57.7305         0.017779   
    167. D(H  24,C  18,N  17,C  15)    116.8964         0.017779   
    168. D(H  23,C  18,N  17,C  19)     61.7547         0.017779   
    169. D(H  23,C  18,N  17,C  15)   -123.6184         0.017779   
    170. D(H  22,C  19,N  17,C  15)      5.2400         0.017814   
    171. D(H  21,C  19,N  17,C  18)    -60.0258         0.017814   
    172. D(H  21,C  19,N  17,C  15)    125.1128         0.017814   
    173. D(H  20,C  19,N  17,C  18)     60.2510         0.017814   
    174. D(H  20,C  19,N  17,C  15)   -114.6105         0.017814   
    -----------------------------------------------------------------

Number of atoms                         .... 34
Number of degrees of freedom            .... 174


         *************************************************************
         *                GEOMETRY OPTIMIZATION CYCLE   1            *
         *************************************************************
---------------------------------
CARTESIAN COORDINATES (ANGSTROEM)
---------------------------------
  C     -3.404186   -0.996310   -0.399451
  C     -2.860036   -1.893197   -1.315889
  C     -1.528870   -1.818244   -1.636566
  C     -2.604807   -0.059258    0.219268
  C     -1.220338    0.003218   -0.040136
  O     -3.225664    0.796311    1.116026
  C     -0.693924   -0.873949   -1.019460
  C      0.681359   -0.782628   -1.383625
  C      1.501310    0.131710   -0.818829
  C     -0.324846    0.911000    0.629308
  C      1.024332    0.995422    0.205456
  N     -0.778624    1.645875    1.655487
  C      0.024156    2.504047    2.236396
  C      1.352173    2.706355    1.855597
  C      1.856141    1.931046    0.840257
  C     -3.086693    2.133586    0.901788
  O     -2.709071    2.594093   -0.168668
  N     -3.525857    2.866347    1.927517
  C     -3.937882    2.317926    3.199862
  C     -3.499438    4.309348    1.852120
  H     -2.802188    4.709663    2.589292
  H     -4.496787    4.704104    2.046922
  H     -3.178637    4.602306    0.854957
  H     -4.959642    2.633074    3.414309
  H     -3.277732    2.686597    3.986085
  H     -3.889249    1.234912    3.168428
  H     -1.103162   -2.482559   -2.372366
  H     -4.457063   -1.011556   -0.165343
  H     -3.499053   -2.623688   -1.785609
  H      1.046338   -1.458581   -2.141685
  H      2.535642    0.218254   -1.116262
  H     -0.411142    3.058481    3.056754
  H      1.957372    3.441093    2.361026
  H      2.884217    2.023042    0.521416

----------------------------
CARTESIAN COORDINATES (A.U.)
----------------------------
  NO LB      ZA    FRAG     MASS         X           Y           Z
   0 C     6.0000    0    12.011   -6.432979   -1.882753   -0.754852
   1 C     6.0000    0    12.011   -5.404684   -3.577625   -2.486670
   2 C     6.0000    0    12.011   -2.889146   -3.435982   -3.092662
   3 C     6.0000    0    12.011   -4.922372   -0.111981    0.414356
   4 C     6.0000    0    12.011   -2.306104    0.006082   -0.075845
   5 O     8.0000    0    15.999   -6.095622    1.504809    2.108983
   6 C     6.0000    0    12.011   -1.311327   -1.651523   -1.926501
   7 C     6.0000    0    12.011    1.287582   -1.478953   -2.614671
   8 C     6.0000    0    12.011    2.837065    0.248896   -1.547362
   9 C     6.0000    0    12.011   -0.613870    1.721541    1.189220
  10 C     6.0000    0    12.011    1.935706    1.881075    0.388256
  11 N     7.0000    0    14.007   -1.471386    3.110253    3.128418
  12 C     6.0000    0    12.011    0.045648    4.731963    4.226176
  13 C     6.0000    0    12.011    2.555237    5.114270    3.506569
  14 C     6.0000    0    12.011    3.507598    3.649148    1.587856
  15 C     6.0000    0    12.011   -5.833004    4.031894    1.704132
  16 O     8.0000    0    15.999   -5.119403    4.902125   -0.318737
  17 N     7.0000    0    14.007   -6.662903    5.416611    3.642479
  18 C     6.0000    0    12.011   -7.441518    4.380246    6.046863
  19 C     6.0000    0    12.011   -6.612979    8.143487    3.500000
  20 H     1.0000    0     1.008   -5.295368    8.899973    4.893053
  21 H     1.0000    0     1.008   -8.497696    8.889469    3.868122
  22 H     1.0000    0     1.008   -6.006753    8.697098    1.615635
  23 H     1.0000    0     1.008   -9.372366    4.975789    6.452109
  24 H     1.0000    0     1.008   -6.194016    5.076932    7.532608
  25 H     1.0000    0     1.008   -7.349615    2.333646    5.987460
  26 H     1.0000    0     1.008   -2.084674   -4.691356   -4.483121
  27 H     1.0000    0     1.008   -8.422629   -1.911564   -0.312453
  28 H     1.0000    0     1.008   -6.612252   -4.958052   -3.374313
  29 H     1.0000    0     1.008    1.977292   -2.756320   -4.047198
  30 H     1.0000    0     1.008    4.791668    0.412441   -2.109430
  31 H     1.0000    0     1.008   -0.776945    5.779691    5.776427
  32 H     1.0000    0     1.008    3.698896    6.502723    4.461693
  33 H     1.0000    0     1.008    5.450381    3.822995    0.985333

--------------------------------
INTERNAL COORDINATES (ANGSTROEM)
--------------------------------
 C      0   0   0     0.000000000000     0.00000000     0.00000000
 C      1   0   0     1.392970092099     0.00000000     0.00000000
 C      2   1   0     1.371296276050   119.85885552     0.00000000
 C      1   2   3     1.378363028510   120.43016143   357.98815491
 C      4   1   2     1.409946611375   121.13170442   358.97930985
 O      4   1   2     1.386230974993   116.75795795   179.90856643
 C      3   2   1     1.403441311711   120.76167516     2.07191483
 C      7   3   2     1.425608555810   120.31176991   181.53071968
 C      8   7   3     1.351787089674   121.45005874   178.98125481
 C      5   4   1     1.440183568406   123.57064258   183.48936706
 C     10   5   4     1.416706534624   119.38289462   186.39700574
 N     10   5   4     1.341267591548   119.38147367     7.39902035
 C     12  10   5     1.310865997271   119.37619427   182.23042096
 C     13  12  10     1.396269091434   123.81173253   359.68895702
 C     14  13  12     1.373317812940   117.96092097   357.92479765
 C      6   4   1     1.361439528095   117.30458360   235.46514387
 O     16   6   4     1.224965242918   122.56405444    16.44429466
 N     16   6   4     1.334887079583   112.62444874   190.38771695
 C     18  16   6     1.445473223607   124.18571508     7.83739743
 C     18  16   6     1.445210132208   120.13175953   182.22764888
 H     20  18  16     1.090793996439   110.05129166   245.38952274
 H     20  18  16     1.090177212413   109.60316712   125.11276444
 H     20  18  16     1.087691205042   108.79282912     5.24003863
 H     19  18  16     1.090550527907   109.29993018   236.38159378
 H     19  18  16     1.090807917453   109.49372600   116.89638426
 H     19  18  16     1.084561309231   109.91165665   356.76656392
 H      3   2   1     1.078862005828   120.58890377   182.32093370
 H      1   2   3     1.078698602611   120.99560941   177.37510051
 H      2   1   3     1.078237915565   119.42637176   181.61923140
 H      8   7   3     1.079248675700   117.74543224     0.04822397
 H      9   8   7     1.079721196205   121.34489013   181.77888415
 H     13  12  10     1.081603892565   115.16509796   180.11549942
 H     14  13  12     1.077758398889   120.32895490   178.84192866
 H     15  14  13     1.080307785212   121.28927625   181.74152585

---------------------------
INTERNAL COORDINATES (A.U.)
---------------------------
 C      0   0   0     0.000000000000     0.00000000     0.00000000
 C      1   0   0     2.632331986810     0.00000000     0.00000000
 C      2   1   0     2.591374410201   119.85885552     0.00000000
 C      1   2   3     2.604728637005   120.43016143   357.98815491
 C      4   1   2     2.664412958950   121.13170442   358.97930985
 O      4   1   2     2.619596901095   116.75795795   179.90856643
 C      3   2   1     2.652119724165   120.76167516     2.07191483
 C      7   3   2     2.694009744656   120.31176991   181.53071968
 C      8   7   3     2.554507390854   121.45005874   178.98125481
 C      5   4   1     2.721552526860   123.57064258   183.48936706
 C     10   5   4     2.677187362577   119.38289462   186.39700574
 N     10   5   4     2.534628420330   119.38147367     7.39902035
 C     12  10   5     2.477177733111   119.37619427   182.23042096
 C     13  12  10     2.638566192070   123.81173253   359.68895702
 C     14  13  12     2.595194561293   117.96092097   357.92479765
 C      6   4   1     2.572747855995   117.30458360   235.46514387
 O     16   6   4     2.314848832687   122.56405444    16.44429466
 N     16   6   4     2.522571000122   112.62444874   190.38771695
 C     18  16   6     2.731548526534   124.18571508     7.83739743
 C     18  16   6     2.731051355841   120.13175953   182.22764888
 H     20  18  16     2.061301921795   110.05129166   245.38952274
 H     20  18  16     2.060136368903   109.60316712   125.11276444
 H     20  18  16     2.055438495804   108.79282912     5.24003863
 H     19  18  16     2.060841832947   109.29993018   236.38159378
 H     19  18  16     2.061328228699   109.49372600   116.89638426
 H     19  18  16     2.049523849893   109.91165665   356.76656392
 H      3   2   1     2.038753727308   120.58890377   182.32093370
 H      1   2   3     2.038444939977   120.99560941   177.37510051
 H      2   1   3     2.037574367628   119.42637176   181.61923140
 H      8   7   3     2.039484427471   117.74543224     0.04822397
 H      9   8   7     2.040377361817   121.34489013   181.77888415
 H     13  12  10     2.043935142330   115.16509796   180.11549942
 H     14  13  12     2.036668212434   120.32895490   178.84192866
 H     15  14  13     2.041485854393   121.28927625   181.74152585

---------------------
BASIS SET INFORMATION
---------------------
There are 4 groups of distinct atoms

 Group   1 Type C   : 11s5p1d contracted to 4s3p1d pattern {6311/311/1}
 Group   2 Type O   : 11s5p1d contracted to 4s3p1d pattern {6311/311/1}
 Group   3 Type N   : 11s5p1d contracted to 4s3p1d pattern {6311/311/1}
 Group   4 Type H   : 5s contracted to 3s pattern {311}

Atom   0C    basis set group =>   1
Atom   1C    basis set group =>   1
Atom   2C    basis set group =>   1
Atom   3C    basis set group =>   1
Atom   4C    basis set group =>   1
Atom   5O    basis set group =>   2
Atom   6C    basis set group =>   1
Atom   7C    basis set group =>   1
Atom   8C    basis set group =>   1
Atom   9C    basis set group =>   1
Atom  10C    basis set group =>   1
Atom  11N    basis set group =>   3
Atom  12C    basis set group =>   1
Atom  13C    basis set group =>   1
Atom  14C    basis set group =>   1
Atom  15C    basis set group =>   1
Atom  16O    basis set group =>   2
Atom  17N    basis set group =>   3
Atom  18C    basis set group =>   1
Atom  19C    basis set group =>   1
Atom  20H    basis set group =>   4
Atom  21H    basis set group =>   4
Atom  22H    basis set group =>   4
Atom  23H    basis set group =>   4
Atom  24H    basis set group =>   4
Atom  25H    basis set group =>   4
Atom  26H    basis set group =>   4
Atom  27H    basis set group =>   4
Atom  28H    basis set group =>   4
Atom  29H    basis set group =>   4
Atom  30H    basis set group =>   4
Atom  31H    basis set group =>   4
Atom  32H    basis set group =>   4
Atom  33H    basis set group =>   4
---------------------------------
AUXILIARY/J BASIS SET INFORMATION
---------------------------------
There are 4 groups of distinct atoms

 Group   1 Type C   : 12s5p4d2f1g contracted to 6s4p3d1f1g pattern {711111/2111/211/2/1}
 Group   2 Type O   : 12s5p4d2f1g contracted to 6s4p3d1f1g pattern {711111/2111/211/2/1}
 Group   3 Type N   : 12s5p4d2f1g contracted to 6s4p3d1f1g pattern {711111/2111/211/2/1}
 Group   4 Type H   : 5s2p1d contracted to 3s1p1d pattern {311/2/1}

Atom   0C    basis set group =>   1
Atom   1C    basis set group =>   1
Atom   2C    basis set group =>   1
Atom   3C    basis set group =>   1
Atom   4C    basis set group =>   1
Atom   5O    basis set group =>   2
Atom   6C    basis set group =>   1
Atom   7C    basis set group =>   1
Atom   8C    basis set group =>   1
Atom   9C    basis set group =>   1
Atom  10C    basis set group =>   1
Atom  11N    basis set group =>   3
Atom  12C    basis set group =>   1
Atom  13C    basis set group =>   1
Atom  14C    basis set group =>   1
Atom  15C    basis set group =>   1
Atom  16O    basis set group =>   2
Atom  17N    basis set group =>   3
Atom  18C    basis set group =>   1
Atom  19C    basis set group =>   1
Atom  20H    basis set group =>   4
Atom  21H    basis set group =>   4
Atom  22H    basis set group =>   4
Atom  23H    basis set group =>   4
Atom  24H    basis set group =>   4
Atom  25H    basis set group =>   4
Atom  26H    basis set group =>   4
Atom  27H    basis set group =>   4
Atom  28H    basis set group =>   4
Atom  29H    basis set group =>   4
Atom  30H    basis set group =>   4
Atom  31H    basis set group =>   4
Atom  32H    basis set group =>   4
Atom  33H    basis set group =>   4
------------------------------------------------------------------------------
                             ORCA STARTUP CALCULATIONS
                           -- RI-GTO INTEGRALS CHOSEN --
------------------------------------------------------------------------------
------------------------------------------------------------------------------
                   ___                                                        
                  /   \      - P O W E R E D   B Y -                         
                 /     \                                                     
                 |  |  |   _    _      __       _____    __    __             
                 |  |  |  | |  | |    /  \     |  _  \  |  |  /  |          
                  \  \/   | |  | |   /    \    | | | |  |  | /  /          
                 / \  \   | |__| |  /  /\  \   | |_| |  |  |/  /          
                |  |  |   |  __  | /  /__\  \  |    /   |      \           
                |  |  |   | |  | | |   __   |  |    \   |  |\   \          
                \     /   | |  | | |  |  |  |  | |\  \  |  | \   \       
                 \___/    |_|  |_| |__|  |__|  |_| \__\ |__|  \__/        
                                                                              
                      - O R C A' S   B I G   F R I E N D -                    
                                      &                                       
                       - I N T E G R A L  F E E D E R -                       
                                                                              
 v1 FN, 2020, v2 2021, v3 2022-2024                                           
------------------------------------------------------------------------------


----------------------
SHARK INTEGRAL PACKAGE
----------------------

Number of atoms                             ...     34
Number of basis functions                   ...    402
Number of shells                            ...    202
Maximum angular momentum                    ...      2
Integral batch strategy                     ... SHARK/LIBINT Hybrid
RI-J (if used) integral strategy            ... SPLIT-RIJ (Revised 2003 algorithm where possible)
Printlevel                                  ...      1
Contraction scheme used                     ... SEGMENTED contraction
Prescreening option                         ... SCHWARTZ
   Thresh                                   ... 2.500e-11
   Tcut                                     ... 2.500e-12
   Tpresel                                  ... 2.500e-12 
Coulomb Range Separation                    ... NOT USED
Exchange Range Separation                   ... NOT USED
Multipole approximations                    ... NOT USED
Finite Nucleus Model                        ... NOT USED
CABS basis                                  ... NOT available
Auxiliary Coulomb fitting basis             ... AVAILABLE
   # of basis functions in Aux-J            ...   1134
   # of shells in Aux-J                     ...    370
   Maximum angular momentum in Aux-J        ...      4
Auxiliary J/K fitting basis                 ... NOT available
Auxiliary Correlation fitting basis         ... NOT available
Auxiliary 'external' fitting basis          ... NOT available

Checking pre-screening integrals            ... done (  0.0 sec) Dimension = 202
Check shell pair data                       ... done (  0.0 sec)
Shell pair information
Shell pair cut-off parameter TPreSel        ...   2.5e-12
Total number of shell pairs                 ...     20503
Shell pairs after pre-screening             ...     15408
Total number of primitive shell pairs       ...     84717
Primitive shell pairs kept                  ...     38669
          la=0 lb=0:   5261 shell pairs
          la=1 lb=0:   5703 shell pairs
          la=1 lb=1:   1555 shell pairs
          la=2 lb=0:   1737 shell pairs
          la=2 lb=1:    982 shell pairs
          la=2 lb=2:    170 shell pairs

Calculating one electron integrals          ... done (  0.1 sec)
Calculating RI/J V-Matrix + Cholesky decomp.... done (  0.4 sec)
Calculating Nuclear repulsion               ... done (  0.0 sec) ENN=   1546.326015342731 Eh

Diagonalization of the overlap matrix:
Smallest eigenvalue                        ... 7.881e-05
Time for diagonalization                   ...    0.027 sec
Threshold for overlap eigenvalues          ... 1.000e-07
Number of eigenvalues below threshold      ... 0
Time for construction of square roots      ...    0.032 sec
Total time needed                          ...    0.091 sec

-------------------
DFT GRID GENERATION
-------------------

General Integration Accuracy     IntAcc      ... 4.388
Radial Grid Type                 RadialGrid  ... OptM3 with GC (2021)
Angular Grid (max. ang.)         AngularGrid ... 4 (Lebedev-302)
Angular grid pruning method      GridPruning ... 4 (adaptive)
Weight generation scheme         WeightScheme... mBecke (2022)
Basis function cutoff            BFCut       ... 1.0000e-11
Integration weight cutoff        WCut        ... 1.0000e-14
Partially contracted basis set               ... off
Rotationally invariant grid construction     ... off
Angular grids for H and He will be reduced by one unit

Total number of grid points                  ...   164195
Total number of batches                      ...     2585
Average number of points per batch           ...       63
Average number of grid points per atom       ...     4829

--------------------
COSX GRID GENERATION
--------------------

GRIDX 1
-------
General Integration Accuracy     IntAcc      ... 3.816
Radial Grid Type                 RadialGrid  ... OptM3 with GC (2021)
Angular Grid (max. ang.)         AngularGrid ... 1 (Lebedev-50)
Angular grid pruning method      GridPruning ... 4 (adaptive)
Weight generation scheme         WeightScheme... mBecke (2022)
Basis function cutoff            BFCut       ... 1.0000e-11
Integration weight cutoff        WCut        ... 1.0000e-14
Partially contracted basis set               ... on
Rotationally invariant grid construction     ... off
Angular grids for H and He will be reduced by one unit

Total number of grid points                  ...    20866
Total number of batches                      ...      180
Average number of points per batch           ...      115
Average number of grid points per atom       ...      614
UseSFitting                                  ... on

GRIDX 2
-------
General Integration Accuracy     IntAcc      ... 4.020
Radial Grid Type                 RadialGrid  ... OptM3 with GC (2021)
Angular Grid (max. ang.)         AngularGrid ... 2 (Lebedev-110)
Angular grid pruning method      GridPruning ... 4 (adaptive)
Weight generation scheme         WeightScheme... mBecke (2022)
Basis function cutoff            BFCut       ... 1.0000e-11
Integration weight cutoff        WCut        ... 1.0000e-14
Partially contracted basis set               ... on
Rotationally invariant grid construction     ... off
Angular grids for H and He will be reduced by one unit

Total number of grid points                  ...    45522
Total number of batches                      ...      371
Average number of points per batch           ...      122
Average number of grid points per atom       ...     1339
UseSFitting                                  ... on

GRIDX 3
-------
General Integration Accuracy     IntAcc      ... 4.338
Radial Grid Type                 RadialGrid  ... OptM3 with GC (2021)
Angular Grid (max. ang.)         AngularGrid ... 3 (Lebedev-194)
Angular grid pruning method      GridPruning ... 4 (adaptive)
Weight generation scheme         WeightScheme... mBecke (2022)
Basis function cutoff            BFCut       ... 1.0000e-11
Integration weight cutoff        WCut        ... 1.0000e-14
Partially contracted basis set               ... on
Rotationally invariant grid construction     ... off
Angular grids for H and He will be reduced by one unit

Total number of grid points                  ...    99648
Total number of batches                      ...      796
Average number of points per batch           ...      125
Average number of grid points per atom       ...     2931
UseSFitting                                  ... on
Initializing property integral containers    ... done (  0.0 sec)

SHARK setup successfully completed in   6.9 seconds

Maximum memory used throughout the entire STARTUP-calculation: 81.3 MB
-------------------------------------------------------------------------------
                                 ORCA GUESS
                   Start orbitals & Density for SCF / CASSCF
-------------------------------------------------------------------------------

------------
SCF SETTINGS
------------
Hamiltonian:
 Density Functional     Method          .... DFT(GTOs)
 Exchange Functional    Exchange        .... B88
   X-Alpha parameter    XAlpha          ....  0.666667
   Becke's b parameter  XBeta           ....  0.004200
 Correlation Functional Correlation     .... LYP
 LDA part of GGA corr.  LDAOpt          .... VWN-3
 Gradients option       PostSCFGGA      .... off
 Hybrid DFT is turned on
   Fraction HF Exchange ScalHFX         ....  0.200000
   Scaling of DF-GGA-X  ScalDFX         ....  0.720000
   Scaling of DF-GGA-C  ScalDFC         ....  0.810000
   Scaling of DF-LDA-C  ScalLDAC        ....  1.000000
   Perturbative correction              ....  0.000000
   NL short-range parameter             ....  4.800000
 RI-approximation to the Coulomb term is turned on
   Number of AuxJ basis functions       .... 1134
   RIJ-COSX (HFX calculated with COS-X)).... on


General Settings:
 Integral files         IntName         .... 1globalminimum
 Hartree-Fock type      HFTyp           .... RHF
 Total Charge           Charge          ....    0
 Multiplicity           Mult            ....    1
 Number of Electrons    NEL             ....  140
 Basis Dimension        Dim             ....  402
 Nuclear Repulsion      ENuc            ....   1546.3260153427 Eh

Convergence Acceleration:
 AO-DIIS                CNVDIIS         .... on
   Start iteration      DIISMaxIt       ....    12
   Startup error        DIISStart       ....  0.200000
   # of expansion vecs  DIISMaxEq       ....     5
   Bias factor          DIISBfac        ....   1.050
   Max. coefficient     DIISMaxC        ....  10.000
 MO-DIIS                CNVKDIIS        .... off
 Trust-Rad. Augm. Hess. CNVTRAH         .... auto
   Auto Start mean grad. ratio tolernc. ....  1.125000
   Auto Start start iteration           ....    50
   Auto Start num. interpolation iter.  ....    10
   Max. Number of Micro iterations      ....    24
   Max. Number of Macro iterations      .... Maxiter - #DIIS iter
   Number of Davidson start vectors     ....     2
   Converg. threshold    (grad. norm)   ....   1.000e-05
   Grad. Scal. Fac. for Micro threshold ....   0.100
   Minimum threshold for Micro iter.    ....   1.000e-02
   NR start threshold (gradient norm)   ....   1.000e-04
   Initial trust radius                 ....   0.400
   Minimum AH scaling param. (alpha)    ....   1.000
   Maximum AH scaling param. (alpha)    .... 1000.000
   Quad. conv. algorithm                .... NR
   White noise on init. David. guess    .... on
   Maximum white noise                  ....   0.010
   Pseudo random numbers                .... off
   Inactive MOs                         .... canonical
   Orbital update algorithm             .... Taylor
   Preconditioner                       .... Diag
   Full preconditioner red. dimension   ....   250
 SOSCF                  CNVSOSCF        .... on
   Start iteration      SOSCFMaxIt      ....   150
   Startup grad/error   SOSCFStart      ....  0.003300
   Hessian update       SOSCFHessUp     .... L-BFGS
 Level Shifting         CNVShift        .... on
   Level shift para.    LevelShift      ....    0.2500
   Turn off err/grad.   ShiftErr        ....    0.0010
 Zerner damping         CNVZerner       .... off
 Static damping         CNVDamp         .... on
   Fraction old density DampFac         ....    0.7000
   Max. Damping (<1)    DampMax         ....    0.9800
   Min. Damping (>=0)   DampMin         ....    0.0000
   Turn off err/grad.   DampErr         ....    0.1000

SCF Procedure:
 Maximum # iterations   MaxIter         ....   125
 SCF integral mode      SCFMode         .... Direct
   Integral package                     .... SHARK and LIBINT hybrid scheme
 Reset frequency        DirectResetFreq ....    20
 Integral Threshold     Thresh          ....  2.500e-11 Eh
 Primitive CutOff       TCut            ....  2.500e-12 Eh

Convergence Tolerance:
 Convergence Check Mode ConvCheckMode   .... Total+1el-Energy
 Convergence forced     ConvForced      .... 0
 Energy Change          TolE            ....  1.000e-08 Eh
 1-El. energy change                    ....  1.000e-05 Eh
 Orbital Gradient       TolG            ....  1.000e-05
 Orbital Rotation angle TolX            ....  1.000e-05
 DIIS Error             TolErr          ....  5.000e-07

------------------------------
INITIAL GUESS: MODEL POTENTIAL
------------------------------
Loading Hartree-Fock densities                     ... done
Calculating cut-offs                               ... done
Initializing the effective Hamiltonian             ... done
Setting up the integral package (SHARK)            ... done
Starting the Coulomb interaction                   ... done (   1.0 sec)
Making the grid                                    ... done (   0.7 sec)
Mapping shells                                     ... done
Starting the XC term evaluation                    ... done (   0.6 sec)
  promolecular density results
     # of electrons  =    139.984771339
     EX              =   -116.102342174
     EC              =     -4.795115506
     EX+EC           =   -120.897457681
Transforming the Hamiltonian                       ... done (   0.0 sec)
Diagonalizing the Hamiltonian                      ... done (   0.0 sec)
Back transforming the eigenvectors                 ... done (   0.1 sec)
Now organizing SCF variables                       ... done
                      ------------------
                      INITIAL GUESS DONE (   2.6 sec)
                      ------------------
             **** ENERGY FILE WAS UPDATED (1globalminimum.en.tmp) ****
Finished Guess after   3.3 sec
Maximum memory used throughout the entire GUESS-calculation: 48.9 MB

-------------------------------------------------------------------------------------------
                                      ORCA LEAN-SCF
                              memory conserving SCF solver
-------------------------------------------------------------------------------------------

--------------------
CPCM SOLVATION MODEL
--------------------
CPCM parameters:
  Epsilon                                         ...      80.1510
  Refrac                                          ...       1.3328
  Rsolv                                           ...       1.3000
  Surface type                                    ... GAUSSIAN VDW
  Discretization scheme                           ... Constant charge density
    Threshold for H atoms                         ...       5.0000 (charges/Ang^2)
    Threshold for non-H atoms                     ...       5.0000 (charges/Ang^2)
  Epsilon function type                           ...         CPCM
Solvent:                                          ... WATER
Radii:
  Scheme                                          ... Element-dependent radii
  Radius for C  used is    3.8550 Bohr (=   2.0400 Ang.)
  Radius for O  used is    3.4469 Bohr (=   1.8240 Ang.)
  Radius for N  used is    3.5149 Bohr (=   1.8600 Ang.)
  Radius for H  used is    2.4944 Bohr (=   1.3200 Ang.)
Calculating surface                               ...        done! (  0.0s)
Cavity surface points                             ...         2944
Cavity Volume                                     ...    2082.5292
Cavity Surface-area                               ...    1045.9813
Calculating surface distance matrix               ...        done! (  0.0s)
Performing Cholesky decomposition & store         ...        done! (  1.4s)
Overall time for CPCM initialization              ...                 1.4s

----------------------------------------D-I-I-S--------------------------------------------
Iteration    Energy (Eh)           Delta-E    RMSDP     MaxDP     DIISErr   Damp  Time(sec)
-------------------------------------------------------------------------------------------
               ***  Starting incremental Fock matrix formation  ***
    1    -877.8358609223660096     0.00e+00  1.85e-03  7.64e-02  3.52e-01  0.700  30.1
    2    -878.0560108454178589    -2.20e-01  1.38e-03  3.59e-02  1.37e-01  0.700  16.4
                               ***Turning on AO-DIIS***
    3    -878.1471985551047510    -9.12e-02  6.18e-04  1.59e-02  4.27e-02  0.700  16.2
    4    -878.2020051110712302    -5.48e-02  9.65e-04  2.22e-02  2.23e-02  0.000  15.3
    5    -878.3207037382017006    -1.19e-01  2.16e-04  6.49e-03  5.18e-03  0.000  15.8
                              *** Initializing SOSCF ***
---------------------------------------S-O-S-C-F--------------------------------------
Iteration    Energy (Eh)           Delta-E    RMSDP     MaxDP     MaxGrad    Time(sec)
--------------------------------------------------------------------------------------
    6    -878.3212816025306893    -5.78e-04  6.13e-05  1.60e-03  2.04e-03    14.8
               *** Restarting incremental Fock matrix formation ***
    7    -878.3213347938199149    -5.32e-05  4.08e-05  1.54e-03  4.55e-04    28.9
    8    -878.3213239728183908     1.08e-05  2.21e-05  9.78e-04  8.56e-04    19.6
    9    -878.3213423971892553    -1.84e-05  3.14e-06  1.04e-04  1.85e-05    17.8
   10    -878.3213423527490704     4.44e-08  1.62e-06  6.89e-05  3.31e-05    14.9
   11    -878.3213424432019565    -9.05e-08  5.16e-07  1.82e-05  4.27e-06    13.5
   12    -878.3213424347372893     8.46e-09  2.78e-07  1.12e-05  6.55e-06    11.8
                 **** Energy Check signals convergence ****

               *****************************************************
               *                     SUCCESS                       *
               *           SCF CONVERGED AFTER  12 CYCLES          *
               *****************************************************

Recomputing exchange energy using gridx3       ... done (   42.657 sec)
Old exchange energy                            :    -23.584159319 Eh
New exchange energy                            :    -23.584194158 Eh
Exchange energy change after final integration :     -0.000034839 Eh
Total energy after final integration           :   -878.321377274 Eh
             **** ENERGY FILE WAS UPDATED (1globalminimum.en.tmp) ****

----------------
TOTAL SCF ENERGY
----------------

Total Energy       :       -878.32137727371560 Eh          -23900.33975 eV

Components:
Nuclear Repulsion  :       1546.32601534273090 Eh           42077.67006 eV
Electronic Energy  :      -2424.62483982026606 Eh          -65977.39612 eV
One Electron Energy:      -4266.04069255893864 Eh         -116084.86889 eV
Two Electron Energy:       1841.41585273867258 Eh           50107.47277 eV
CPCM Dielectric    :         -0.02251795720228 Eh              -0.61274 eV

Virial components:
Potential Energy   :      -1753.88361119385627 Eh          -47725.59938 eV
Kinetic Energy     :        875.56223392014067 Eh           23825.25964 eV
Virial Ratio       :          2.00315128182405

DFT components:
N(Alpha)           :       69.999927099069 electrons
N(Beta)            :       69.999927099069 electrons
N(Total)           :      139.999854198139 electrons
E(X)               :      -93.744200566440 Eh       
E(C)               :       -6.166383382494 Eh       
E(XC)              :      -99.910583948933 Eh       

CPCM Solvation Model Properties:
Surface-charge          :         -0.02757627873950
Corrected charge        :          0.00000000000000
Outlying charge corr.   :          0.00004340480760 Eh               0.00118 eV
Free-energy (cav+disp)  :  This term is not implemented in the current solvation scheme

---------------
SCF CONVERGENCE
---------------

  Last Energy change         ...   -8.4647e-09  Tolerance :   1.0000e-08
  Last MAX-Density change    ...    1.1180e-05  Tolerance :   1.0000e-07
  Last RMS-Density change    ...    2.7780e-07  Tolerance :   5.0000e-09
  Last DIIS Error            ...    2.0361e-03  Tolerance :   5.0000e-07
  Last Orbital Gradient      ...    6.5480e-06  Tolerance :   1.0000e-05
  Last Orbital Rotation      ...    9.7645e-06  Tolerance :   1.0000e-05


----------------
ORBITAL ENERGIES
----------------

  NO   OCC          E(Eh)            E(eV) 
   0   2.0000     -19.167342      -521.5699 
   1   2.0000     -19.080232      -519.1995 
   2   2.0000     -14.340014      -390.2116 
   3   2.0000     -14.309036      -389.3687 
   4   2.0000     -10.315758      -280.7061 
   5   2.0000     -10.245876      -278.8045 
   6   2.0000     -10.219793      -278.0947 
   7   2.0000     -10.208507      -277.7876 
   8   2.0000     -10.194164      -277.3973 
   9   2.0000     -10.193506      -277.3794 
  10   2.0000     -10.192545      -277.3533 
  11   2.0000     -10.191189      -277.3163 
  12   2.0000     -10.191160      -277.3156 
  13   2.0000     -10.190581      -277.2998 
  14   2.0000     -10.180872      -277.0356 
  15   2.0000     -10.180685      -277.0305 
  16   2.0000     -10.180399      -277.0227 
  17   2.0000     -10.179959      -277.0108 
  18   2.0000     -10.178669      -276.9757 
  19   2.0000     -10.176273      -276.9105 
  20   2.0000      -1.119753       -30.4700 
  21   2.0000      -1.018135       -27.7049 
  22   2.0000      -0.962339       -26.1866 
  23   2.0000      -0.947999       -25.7964 
  24   2.0000      -0.885347       -24.0915 
  25   2.0000      -0.842168       -22.9166 
  26   2.0000      -0.810748       -22.0616 
  27   2.0000      -0.786448       -21.4004 
  28   2.0000      -0.753706       -20.5094 
  29   2.0000      -0.747621       -20.3438 
  30   2.0000      -0.722122       -19.6499 
  31   2.0000      -0.708090       -19.2681 
  32   2.0000      -0.658400       -17.9160 
  33   2.0000      -0.651240       -17.7211 
  34   2.0000      -0.633466       -17.2375 
  35   2.0000      -0.622851       -16.9486 
  36   2.0000      -0.575445       -15.6586 
  37   2.0000      -0.550574       -14.9819 
  38   2.0000      -0.537919       -14.6375 
  39   2.0000      -0.534352       -14.5405 
  40   2.0000      -0.515077       -14.0160 
  41   2.0000      -0.499006       -13.5787 
  42   2.0000      -0.492822       -13.4104 
  43   2.0000      -0.484986       -13.1971 
  44   2.0000      -0.479987       -13.0611 
  45   2.0000      -0.467087       -12.7101 
  46   2.0000      -0.447332       -12.1725 
  47   2.0000      -0.444794       -12.1034 
  48   2.0000      -0.437950       -11.9172 
  49   2.0000      -0.431953       -11.7541 
  50   2.0000      -0.425061       -11.5665 
  51   2.0000      -0.411999       -11.2111 
  52   2.0000      -0.408121       -11.1055 
  53   2.0000      -0.404556       -11.0085 
  54   2.0000      -0.403963       -10.9924 
  55   2.0000      -0.401493       -10.9252 
  56   2.0000      -0.386861       -10.5270 
  57   2.0000      -0.384736       -10.4692 
  58   2.0000      -0.375542       -10.2190 
  59   2.0000      -0.365212        -9.9379 
  60   2.0000      -0.355958        -9.6861 
  61   2.0000      -0.342057        -9.3078 
  62   2.0000      -0.318959        -8.6793 
  63   2.0000      -0.305222        -8.3055 
  64   2.0000      -0.279873        -7.6157 
  65   2.0000      -0.279020        -7.5925 
  66   2.0000      -0.262679        -7.1479 
  67   2.0000      -0.248333        -6.7575 
  68   2.0000      -0.245398        -6.6776 
  69   2.0000      -0.226343        -6.1591 
  70   0.0000      -0.060405        -1.6437 
  71   0.0000      -0.051481        -1.4009 
  72   0.0000      -0.011819        -0.3216 
  73   0.0000       0.016195         0.4407 
  74   0.0000       0.043353         1.1797 
  75   0.0000       0.054119         1.4727 
  76   0.0000       0.057909         1.5758 
  77   0.0000       0.061860         1.6833 
  78   0.0000       0.066275         1.8034 
  79   0.0000       0.081716         2.2236 
  80   0.0000       0.091345         2.4856 
*Only the first 10 virtual orbitals were printed.

                    ********************************
                    * MULLIKEN POPULATION ANALYSIS *
                    ********************************

-----------------------
MULLIKEN ATOMIC CHARGES
-----------------------
   0 C :   -0.228271
   1 C :   -0.217802
   2 C :   -0.229937
   3 C :    0.214091
   4 C :    0.023057
   5 O :   -0.370551
   6 C :    0.019641
   7 C :   -0.227155
   8 C :   -0.234496
   9 C :    0.149349
  10 C :   -0.016820
  11 N :   -0.395669
  12 C :   -0.037768
  13 C :   -0.299890
  14 C :   -0.099331
  15 C :    0.557690
  16 O :   -0.464197
  17 N :   -0.321363
  18 C :   -0.525090
  19 C :   -0.526693
  20 H :    0.232098
  21 H :    0.232949
  22 H :    0.231822
  23 H :    0.231790
  24 H :    0.229399
  25 H :    0.242451
  26 H :    0.226670
  27 H :    0.229011
  28 H :    0.227112
  29 H :    0.229093
  30 H :    0.227324
  31 H :    0.225111
  32 H :    0.230005
  33 H :    0.236367
Sum of atomic charges:    0.0000000

--------------------------------
MULLIKEN REDUCED ORBITAL CHARGES
--------------------------------
  0 C s       :     3.180204  s :     3.180204
      pz      :     0.999174  p :     2.989861
      px      :     1.015522
      py      :     0.975165
      dz2     :     0.011070  d :     0.058205
      dxz     :     0.010636
      dyz     :     0.008422
      dx2y2   :     0.017830
      dxy     :     0.010247

  1 C s       :     3.197832  s :     3.197832
      pz      :     0.976039  p :     2.956803
      px      :     0.984425
      py      :     0.996339
      dz2     :     0.009189  d :     0.063168
      dxz     :     0.015361
      dyz     :     0.008151
      dx2y2   :     0.011560
      dxy     :     0.018906

  2 C s       :     3.190516  s :     3.190516
      pz      :     1.020180  p :     2.978143
      px      :     0.962267
      py      :     0.995696
      dz2     :     0.006744  d :     0.061278
      dxz     :     0.014964
      dyz     :     0.009820
      dx2y2   :     0.013169
      dxy     :     0.016580

  3 C s       :     3.127572  s :     3.127572
      pz      :     0.785974  p :     2.543853
      px      :     0.878919
      py      :     0.878960
      dz2     :     0.019187  d :     0.114484
      dxz     :     0.023808
      dyz     :     0.018444
      dx2y2   :     0.025098
      dxy     :     0.027947

  4 C s       :     3.025124  s :     3.025124
      pz      :     1.044315  p :     2.883354
      px      :     0.865235
      py      :     0.973803
      dz2     :     0.011418  d :     0.068465
      dxz     :     0.015905
      dyz     :     0.008675
      dx2y2   :     0.016562
      dxy     :     0.015905

  5 O s       :     3.807656  s :     3.807656
      pz      :     1.625530  p :     4.547912
      px      :     1.706144
      py      :     1.216238
      dz2     :     0.002866  d :     0.014982
      dxz     :     0.002358
      dyz     :     0.003572
      dx2y2   :     0.003366
      dxy     :     0.002822

  6 C s       :     3.084329  s :     3.084329
      pz      :     0.945682  p :     2.819684
      px      :     0.939026
      py      :     0.934976
      dz2     :     0.012977  d :     0.076346
      dxz     :     0.016827
      dyz     :     0.010418
      dx2y2   :     0.018329
      dxy     :     0.017795

  7 C s       :     3.193510  s :     3.193510
      pz      :     1.010486  p :     2.971657
      px      :     0.949246
      py      :     1.011925
      dz2     :     0.007537  d :     0.061987
      dxz     :     0.013285
      dyz     :     0.011243
      dx2y2   :     0.015459
      dxy     :     0.014463

  8 C s       :     3.203055  s :     3.203055
      pz      :     0.967333  p :     2.969437
      px      :     1.034415
      py      :     0.967689
      dz2     :     0.012145  d :     0.062003
      dxz     :     0.011146
      dyz     :     0.010068
      dx2y2   :     0.018816
      dxy     :     0.009828

  9 C s       :     3.056598  s :     3.056598
      pz      :     0.847876  p :     2.694714
      px      :     0.941671
      py      :     0.905167
      dz2     :     0.018853  d :     0.099339
      dxz     :     0.025962
      dyz     :     0.015314
      dx2y2   :     0.019813
      dxy     :     0.019397

 10 C s       :     3.072767  s :     3.072767
      pz      :     0.995715  p :     2.869832
      px      :     0.902514
      py      :     0.971602
      dz2     :     0.013926  d :     0.074222
      dxz     :     0.016056
      dyz     :     0.011050
      dx2y2   :     0.017342
      dxy     :     0.015847

 11 N s       :     3.627294  s :     3.627294
      pz      :     1.137703  p :     3.731473
      px      :     1.504034
      py      :     1.089735
      dz2     :     0.007305  d :     0.036902
      dxz     :     0.008721
      dyz     :     0.005760
      dx2y2   :     0.005834
      dxy     :     0.009282

 12 C s       :     3.138525  s :     3.138525
      pz      :     0.976475  p :     2.809872
      px      :     0.905803
      py      :     0.927594
      dz2     :     0.014453  d :     0.089371
      dxz     :     0.018622
      dyz     :     0.014734
      dx2y2   :     0.020932
      dxy     :     0.020630

 13 C s       :     3.236242  s :     3.236242
      pz      :     0.990342  p :     3.004073
      px      :     0.981872
      py      :     1.031859
      dz2     :     0.009402  d :     0.059575
      dxz     :     0.014838
      dyz     :     0.009436
      dx2y2   :     0.011223
      dxy     :     0.014678

 14 C s       :     3.154632  s :     3.154632
      pz      :     0.952289  p :     2.882310
      px      :     0.994080
      py      :     0.935941
      dz2     :     0.012621  d :     0.062389
      dxz     :     0.012848
      dyz     :     0.009586
      dx2y2   :     0.017617
      dxy     :     0.009717

 15 C s       :     2.896510  s :     2.896510
      pz      :     0.768271  p :     2.315293
      px      :     0.825561
      py      :     0.721461
      dz2     :     0.058552  d :     0.230507
      dxz     :     0.039178
      dyz     :     0.063837
      dx2y2   :     0.036111
      dxy     :     0.032829

 16 O s       :     3.825678  s :     3.825678
      pz      :     1.408377  p :     4.622637
      px      :     1.521497
      py      :     1.692764
      dz2     :     0.005444  d :     0.015882
      dxz     :     0.004155
      dyz     :     0.004270
      dx2y2   :     0.000921
      dxy     :     0.001092

 17 N s       :     3.464472  s :     3.464472
      pz      :     1.148538  p :     3.821342
      px      :     1.554132
      py      :     1.118671
      dz2     :     0.008288  d :     0.035549
      dxz     :     0.005314
      dyz     :     0.011284
      dx2y2   :     0.005234
      dxy     :     0.005429

 18 C s       :     3.318055  s :     3.318055
      pz      :     0.876795  p :     3.135644
      px      :     1.123993
      py      :     1.134856
      dz2     :     0.019063  d :     0.071391
      dxz     :     0.019441
      dyz     :     0.010782
      dx2y2   :     0.016349
      dxy     :     0.005756

 19 C s       :     3.321286  s :     3.321286
      pz      :     1.179713  p :     3.134011
      px      :     1.154461
      py      :     0.799837
      dz2     :     0.013676  d :     0.071397
      dxz     :     0.009881
      dyz     :     0.011137
      dx2y2   :     0.018229
      dxy     :     0.018475

 20 H s       :     0.767902  s :     0.767902

 21 H s       :     0.767051  s :     0.767051

 22 H s       :     0.768178  s :     0.768178

 23 H s       :     0.768210  s :     0.768210

 24 H s       :     0.770601  s :     0.770601

 25 H s       :     0.757549  s :     0.757549

 26 H s       :     0.773330  s :     0.773330

 27 H s       :     0.770989  s :     0.770989

 28 H s       :     0.772888  s :     0.772888

 29 H s       :     0.770907  s :     0.770907

 30 H s       :     0.772676  s :     0.772676

 31 H s       :     0.774889  s :     0.774889

 32 H s       :     0.769995  s :     0.769995

 33 H s       :     0.763633  s :     0.763633



                     *******************************
                     * LOEWDIN POPULATION ANALYSIS *
                     *******************************

----------------------
LOEWDIN ATOMIC CHARGES
----------------------
   0 C :   -0.117935
   1 C :   -0.102929
   2 C :   -0.104151
   3 C :   -0.005630
   4 C :   -0.038345
   5 O :    0.064435
   6 C :   -0.031483
   7 C :   -0.092873
   8 C :   -0.097526
   9 C :   -0.031489
  10 C :   -0.050279
  11 N :    0.002151
  12 C :   -0.097810
  13 C :   -0.128934
  14 C :   -0.060395
  15 C :   -0.127686
  16 O :   -0.206043
  17 N :    0.046403
  18 C :   -0.244580
  19 C :   -0.241478
  20 H :    0.110802
  21 H :    0.113077
  22 H :    0.116481
  23 H :    0.112526
  24 H :    0.110743
  25 H :    0.117514
  26 H :    0.122878
  27 H :    0.124233
  28 H :    0.123989
  29 H :    0.124987
  30 H :    0.124394
  31 H :    0.109885
  32 H :    0.126990
  33 H :    0.128080

-------------------------------
LOEWDIN REDUCED ORBITAL CHARGES
-------------------------------
  0 C s       :     2.831461  s :     2.831461
      pz      :     1.035931  p :     3.156588
      px      :     1.065266
      py      :     1.055390
      dz2     :     0.022489  d :     0.129887
      dxz     :     0.023778
      dyz     :     0.022356
      dx2y2   :     0.034670
      dxy     :     0.026592

  1 C s       :     2.827342  s :     2.827342
      pz      :     1.017124  p :     3.138347
      px      :     1.095351
      py      :     1.025872
      dz2     :     0.019735  d :     0.137240
      dxz     :     0.033403
      dyz     :     0.016990
      dx2y2   :     0.028779
      dxy     :     0.038333

  2 C s       :     2.826106  s :     2.826106
      pz      :     1.024322  p :     3.144546
      px      :     1.091200
      py      :     1.029024
      dz2     :     0.014340  d :     0.133499
      dxz     :     0.032464
      dyz     :     0.017269
      dx2y2   :     0.032411
      dxy     :     0.037015

  3 C s       :     2.788927  s :     2.788927
      pz      :     0.935095  p :     2.965349
      px      :     1.062149
      py      :     0.968106
      dz2     :     0.040296  d :     0.251354
      dxz     :     0.053963
      dyz     :     0.042774
      dx2y2   :     0.053250
      dxy     :     0.061070

  4 C s       :     2.782702  s :     2.782702
      pz      :     1.023361  p :     3.093882
      px      :     1.048675
      py      :     1.021846
      dz2     :     0.025038  d :     0.161762
      dxz     :     0.037363
      dyz     :     0.021625
      dx2y2   :     0.040069
      dxy     :     0.037667

  5 O s       :     3.362398  s :     3.362398
      pz      :     1.606076  p :     4.548156
      px      :     1.669754
      py      :     1.272327
      dz2     :     0.004448  d :     0.025012
      dxz     :     0.003041
      dyz     :     0.006125
      dx2y2   :     0.006816
      dxy     :     0.004581

  6 C s       :     2.778643  s :     2.778643
      pz      :     1.004169  p :     3.078725
      px      :     1.059681
      py      :     1.014875
      dz2     :     0.027931  d :     0.174115
      dxz     :     0.038518
      dyz     :     0.025042
      dx2y2   :     0.041994
      dxy     :     0.040629

  7 C s       :     2.827555  s :     2.827555
      pz      :     1.021564  p :     3.130919
      px      :     1.067916
      py      :     1.041438
      dz2     :     0.015589  d :     0.134400
      dxz     :     0.029188
      dyz     :     0.020287
      dx2y2   :     0.035710
      dxy     :     0.033625

  8 C s       :     2.827228  s :     2.827228
      pz      :     1.023958  p :     3.135364
      px      :     1.070555
      py      :     1.040852
      dz2     :     0.025337  d :     0.134934
      dxz     :     0.024070
      dyz     :     0.024729
      dx2y2   :     0.036070
      dxy     :     0.024727

  9 C s       :     2.781597  s :     2.781597
      pz      :     0.991131  p :     3.022390
      px      :     1.056439
      py      :     0.974819
      dz2     :     0.040302  d :     0.227501
      dxz     :     0.062865
      dyz     :     0.035593
      dx2y2   :     0.043883
      dxy     :     0.044858

 10 C s       :     2.782519  s :     2.782519
      pz      :     1.013255  p :     3.095946
      px      :     1.069240
      py      :     1.013450
      dz2     :     0.029756  d :     0.171814
      dxz     :     0.038502
      dyz     :     0.025741
      dx2y2   :     0.040216
      dxy     :     0.037600

 11 N s       :     3.129061  s :     3.129061
      pz      :     1.173467  p :     3.799782
      px      :     1.489011
      py      :     1.137304
      dz2     :     0.013791  d :     0.069006
      dxz     :     0.014946
      dyz     :     0.014008
      dx2y2   :     0.009995
      dxy     :     0.016266

 12 C s       :     2.836116  s :     2.836116
      pz      :     1.005401  p :     3.063620
      px      :     1.072203
      py      :     0.986016
      dz2     :     0.030306  d :     0.198073
      dxz     :     0.040834
      dyz     :     0.028310
[...]
 49:    995.41   0.004933   24.93  0.001547  (-0.018017 -0.002544  0.034864)
 50:   1000.87   0.000199    1.01  0.000062  ( 0.000675 -0.005548  0.005560)
 51:   1029.09   0.009068   45.83  0.002750  ( 0.044455 -0.027786 -0.001243)
 52:   1046.63   0.008692   43.92  0.002591  ( 0.027614 -0.042760 -0.000683)
 53:   1082.93   0.004123   20.84  0.001188  ( 0.010779 -0.032618 -0.002830)
 54:   1084.27   0.001242    6.28  0.000357  (-0.002522  0.016259 -0.009312)
 55:   1107.98   0.000573    2.89  0.000161  (-0.012038 -0.003399 -0.002186)
 56:   1134.55   0.001307    6.60  0.000359  (-0.008651  0.016486  0.003572)
 57:   1148.06   0.006737   34.04  0.001831  (-0.008945 -0.037861 -0.017823)
 58:   1161.55   0.196667  993.87  0.052837  (-0.106197  0.173163  0.107580)
 59:   1172.64   0.003455   17.46  0.000919  (-0.008432  0.022702  0.018245)
 60:   1181.17   0.005747   29.04  0.001518  (-0.010600  0.034360  0.015009)
 61:   1188.14   0.003516   17.77  0.000923  ( 0.014105 -0.026483 -0.004814)
 62:   1220.96   0.004340   21.93  0.001109  (-0.008769  0.027998  0.015763)
 63:   1225.56   0.009220   46.59  0.002348  (-0.022891  0.038319  0.018848)
 64:   1257.68   0.029065  146.88  0.007212  (-0.050591  0.063574  0.024711)
 65:   1272.06   0.004488   22.68  0.001101  (-0.011865  0.029678  0.008907)
 66:   1285.47   0.003009   15.21  0.000731  ( 0.003791  0.021469 -0.015977)
 67:   1324.22   0.002953   14.92  0.000696  ( 0.017822 -0.015239 -0.012081)
 68:   1342.46   0.006387   32.28  0.001485  (-0.021422  0.025148  0.019836)
 69:   1355.89   0.001932    9.76  0.000445  ( 0.015275 -0.010848 -0.009674)
 70:   1412.23   0.022202  112.20  0.004906  (-0.006502 -0.057230 -0.039856)
 71:   1422.50   0.045993  232.43  0.010090  (-0.047983  0.076891  0.043305)
 72:   1447.53   0.003629   18.34  0.000782  ( 0.002741  0.004673 -0.027442)
 73:   1452.98   0.002103   10.63  0.000452  (-0.002243 -0.018342 -0.010502)
 74:   1457.25   0.005756   29.09  0.001233  (-0.000572 -0.027629 -0.021656)
 75:   1470.59   0.008081   40.84  0.001715  ( 0.027963 -0.027579  0.013129)
 76:   1478.07   0.002940   14.86  0.000621  (-0.016207 -0.011599  0.014950)
 77:   1492.91   0.000140    0.71  0.000029  ( 0.002458  0.001750 -0.004493)
 78:   1501.55   0.005597   28.29  0.001163  (-0.033377 -0.002075 -0.006699)
 79:   1505.30   0.004812   24.32  0.000998  ( 0.012513  0.022319 -0.018518)
 80:   1531.65   0.001395    7.05  0.000284  ( 0.013102 -0.008435  0.006430)
 81:   1537.07   0.014657   74.07  0.002976  ( 0.013884 -0.052465 -0.005523)
 82:   1548.62   0.010283   51.96  0.002072  (-0.024490  0.033693  0.018360)
 83:   1601.23   0.007982   40.34  0.001556  ( 0.037959 -0.004240 -0.009836)
 84:   1633.10   0.010900   55.08  0.002083  (-0.008209 -0.033629 -0.029740)
 85:   1647.00   0.001252    6.33  0.000237  (-0.007652 -0.009113 -0.009782)
 86:   1661.69   0.004287   21.66  0.000805  ( 0.027426  0.007270  0.000243)
 87:   1743.14   0.176199  890.44  0.031544  ( 0.036868  0.006198 -0.173627)
 88:   3024.30   0.007604   38.43  0.000785  (-0.000607  0.026131 -0.010071)
 89:   3029.42   0.024519  123.91  0.002526  ( 0.001761 -0.027184 -0.042233)
 90:   3074.73   0.020079  101.47  0.002038  (-0.044771 -0.005420  0.002013)
 91:   3080.13   0.003239   16.37  0.000328  (-0.018080  0.001065  0.000344)
 92:   3150.90   0.009503   48.03  0.000941  (-0.004540  0.021498  0.021411)
 93:   3169.78   0.000290    1.47  0.000029  ( 0.004874  0.001955  0.001010)
 94:   3172.16   0.001733    8.76  0.000170  ( 0.000304 -0.004038  0.012412)
 95:   3176.28   0.001278    6.46  0.000126  (-0.009426  0.003329  0.005064)
 96:   3176.92   0.001516    7.66  0.000149  ( 0.011723 -0.001473 -0.003047)
 97:   3186.61   0.004952   25.03  0.000485  (-0.019146  0.006147  0.008977)
 98:   3189.46   0.009717   49.10  0.000951  (-0.008870  0.020866  0.020896)
 99:   3192.41   0.001816    9.18  0.000178  (-0.003857  0.012727  0.000836)
100:   3201.09   0.010270   51.90  0.001001  ( 0.023071  0.017666  0.012524)
101:   3201.36   0.001088    5.50  0.000106  (-0.005328 -0.006530 -0.005919)

* The epsilon (eps) is given for a Dirac delta lineshape.
** The dipole moment derivative (T) already includes vibrational overlap.

The first frequency considered to be a vibration is 6
The total number of vibrations considered is 96


--------------------------
THERMOCHEMISTRY AT 298.15K
--------------------------

Temperature         ...   298.15 K
Pressure            ...     1.00 atm
Total Mass          ...   266.30 AMU
Quasi RRHO          ...     True
Cut-Off Frequency   ...     1.00 cm^-1

Throughout the following assumptions are being made:
  (1) The electronic state is orbitally nondegenerate
  (2) There are no thermally accessible electronically excited states
  (3) Hindered rotations indicated by low frequency modes are not
      treated as such but are treated as vibrations and this may
      cause some error
  (4) All equations used are the standard statistical mechanics
      equations for an ideal gas
  (5) All vibrations are strictly harmonic

freq.       9.48  E(vib)   ...       0.58 
freq.      36.56  E(vib)   ...       0.54 
freq.      49.46  E(vib)   ...       0.52 
freq.      59.25  E(vib)   ...       0.51 
freq.      97.19  E(vib)   ...       0.46 
freq.     103.76  E(vib)   ...       0.46 
freq.     112.58  E(vib)   ...       0.45 
freq.     131.19  E(vib)   ...       0.42 
freq.     204.07  E(vib)   ...       0.35 
freq.     220.12  E(vib)   ...       0.33 
freq.     228.03  E(vib)   ...       0.33 
freq.     232.77  E(vib)   ...       0.32 
freq.     246.59  E(vib)   ...       0.31 
freq.     297.06  E(vib)   ...       0.27 
freq.     366.74  E(vib)   ...       0.22 
freq.     376.36  E(vib)   ...       0.21 
freq.     409.59  E(vib)   ...       0.19 
freq.     421.03  E(vib)   ...       0.18 
freq.     463.45  E(vib)   ...       0.16 
freq.     488.85  E(vib)   ...       0.15 
freq.     509.54  E(vib)   ...       0.14 
freq.     519.39  E(vib)   ...       0.13 
freq.     524.84  E(vib)   ...       0.13 
freq.     561.35  E(vib)   ...       0.11 
freq.     582.08  E(vib)   ...       0.11 
freq.     607.31  E(vib)   ...       0.10 
freq.     623.10  E(vib)   ...       0.09 
freq.     659.02  E(vib)   ...       0.08 
freq.     701.57  E(vib)   ...       0.07 
freq.     729.94  E(vib)   ...       0.06 
freq.     735.94  E(vib)   ...       0.06 
freq.     739.09  E(vib)   ...       0.06 
freq.     773.24  E(vib)   ...       0.05 
freq.     800.82  E(vib)   ...       0.05 
freq.     823.82  E(vib)   ...       0.05 
freq.     833.31  E(vib)   ...       0.04 
freq.     853.82  E(vib)   ...       0.04 
freq.     868.07  E(vib)   ...       0.04 
freq.     870.64  E(vib)   ...       0.04 
freq.     921.98  E(vib)   ...       0.03 
freq.     965.50  E(vib)   ...       0.03 
freq.     979.49  E(vib)   ...       0.03 
freq.     987.93  E(vib)   ...       0.02 
freq.     995.41  E(vib)   ...       0.02 
freq.    1000.87  E(vib)   ...       0.02 
freq.    1029.09  E(vib)   ...       0.02 
freq.    1046.63  E(vib)   ...       0.02 
freq.    1082.93  E(vib)   ...       0.02 
freq.    1084.27  E(vib)   ...       0.02 
freq.    1107.98  E(vib)   ...       0.02 
freq.    1134.55  E(vib)   ...       0.01 
freq.    1148.06  E(vib)   ...       0.01 
freq.    1161.55  E(vib)   ...       0.01 
freq.    1172.64  E(vib)   ...       0.01 
freq.    1181.17  E(vib)   ...       0.01 
freq.    1188.14  E(vib)   ...       0.01 
freq.    1220.96  E(vib)   ...       0.01 
freq.    1225.56  E(vib)   ...       0.01 
freq.    1257.68  E(vib)   ...       0.01 
freq.    1272.06  E(vib)   ...       0.01 
freq.    1285.47  E(vib)   ...       0.01 
freq.    1324.22  E(vib)   ...       0.01 
freq.    1342.46  E(vib)   ...       0.01 
freq.    1355.89  E(vib)   ...       0.01 
freq.    1412.23  E(vib)   ...       0.00 
freq.    1422.50  E(vib)   ...       0.00 
freq.    1447.53  E(vib)   ...       0.00 
freq.    1452.98  E(vib)   ...       0.00 
freq.    1457.25  E(vib)   ...       0.00 
freq.    1470.59  E(vib)   ...       0.00 
freq.    1478.07  E(vib)   ...       0.00 
freq.    1492.91  E(vib)   ...       0.00 
freq.    1501.55  E(vib)   ...       0.00 
freq.    1505.30  E(vib)   ...       0.00 
freq.    1531.65  E(vib)   ...       0.00 
freq.    1537.07  E(vib)   ...       0.00 
freq.    1548.62  E(vib)   ...       0.00 
freq.    1601.23  E(vib)   ...       0.00 
freq.    1633.10  E(vib)   ...       0.00 
freq.    1647.00  E(vib)   ...       0.00 
freq.    1661.69  E(vib)   ...       0.00 
freq.    1743.14  E(vib)   ...       0.00 
freq.    3024.30  E(vib)   ...       0.00 
freq.    3029.42  E(vib)   ...       0.00 
freq.    3074.73  E(vib)   ...       0.00 
freq.    3080.13  E(vib)   ...       0.00 
freq.    3150.90  E(vib)   ...       0.00 
freq.    3169.78  E(vib)   ...       0.00 
freq.    3172.16  E(vib)   ...       0.00 
freq.    3176.28  E(vib)   ...       0.00 
freq.    3176.92  E(vib)   ...       0.00 
freq.    3186.61  E(vib)   ...       0.00 
freq.    3189.46  E(vib)   ...       0.00 
freq.    3192.41  E(vib)   ...       0.00 
freq.    3201.09  E(vib)   ...       0.00 
freq.    3201.36  E(vib)   ...       0.00 

------------
INNER ENERGY
------------

The inner energy is: U= E(el) + E(ZPE) + E(vib) + E(rot) + E(trans)
    E(el)   - is the total energy from the electronic structure calculation
              = E(kin-el) + E(nuc-el) + E(el-el) + E(nuc-nuc)
    E(ZPE)  - the the zero temperature vibrational energy from the frequency calculation
    E(vib)  - the the finite temperature correction to E(ZPE) due to population
              of excited vibrational states
    E(rot)  - is the rotational thermal energy
    E(trans)- is the translational thermal energy

Summary of contributions to the inner energy U:
Electronic energy                ...   -878.32939492 Eh
Zero point energy                ...      0.26862663 Eh     168.57 kcal/mol
Thermal vibrational correction   ...      0.01407579 Eh       8.83 kcal/mol
Thermal rotational correction    ...      0.00141627 Eh       0.89 kcal/mol
Thermal translational correction ...      0.00141627 Eh       0.89 kcal/mol
-----------------------------------------------------------------------
Total thermal energy                   -878.04385997 Eh


Summary of corrections to the electronic energy:
(perhaps to be used in another calculation)
Total thermal correction                  0.01690833 Eh      10.61 kcal/mol
Non-thermal (ZPE) correction              0.26862663 Eh     168.57 kcal/mol
-----------------------------------------------------------------------
Total correction                          0.28553495 Eh     179.18 kcal/mol


--------
ENTHALPY
--------

The enthalpy is H = U + kB*T
                kB is Boltzmann's constant
Total thermal energy              ...   -878.04385997 Eh 
Thermal Enthalpy correction       ...      0.00094421 Eh       0.59 kcal/mol
-----------------------------------------------------------------------
Total Enthalpy                    ...   -878.04291576 Eh


Note: Only C1 symmetry has been detected, increase convergence thresholds 
      if your molecule has a higher symmetry. Symmetry factor of 1.0 is   
      used for the rotational entropy correction. 
 

Note: Rotational entropy computed according to Herzberg 
Infrared and Raman Spectra, Chapter V,1, Van Nostrand Reinhold, 1945 
Point Group:  C1, Symmetry Number:   1  
Rotational constants in cm-1:     0.016106     0.011071     0.007155 

Vibrational entropy computed according to the QRRHO of S. Grimme
Chem.Eur.J. 2012 18 9955 using a reference frequency of 100.0 cm-1


-------
ENTROPY
-------

The entropy contributions are T*S = T*(S(el)+S(vib)+S(rot)+S(trans))
     S(el)   - electronic entropy
     S(vib)  - vibrational entropy
     S(rot)  - rotational entropy
     S(trans)- translational entropy
The entropies will be listed as multiplied by the temperature to get
units of energy

Electronic entropy                ...      0.00000000 Eh      0.00 kcal/mol
Vibrational entropy               ...      0.02517291 Eh     15.80 kcal/mol
Rotational entropy                ...      0.01591797 Eh      9.99 kcal/mol
Translational entropy             ...      0.02025841 Eh     12.71 kcal/mol
-----------------------------------------------------------------------
Final entropy term                ...      0.06134929 Eh     38.50 kcal/mol

In case the symmetry of your molecule has not been determined correctly
or in case you have a reason to use a different symmetry number we print 
out the resulting rotational entropy values for sn=1,12:

 non-linear molecules -----------------------------------
|  sn= 1 | S(rot)=       0.01591797 Eh      9.99 kcal/mol|
|  sn= 2 | S(rot)=       0.01526351 Eh      9.58 kcal/mol|
|  sn= 3 | S(rot)=       0.01488068 Eh      9.34 kcal/mol|
|  sn= 4 | S(rot)=       0.01460906 Eh      9.17 kcal/mol|
|  sn= 5 | S(rot)=       0.01439837 Eh      9.04 kcal/mol|
|  sn= 6 | S(rot)=       0.01422622 Eh      8.93 kcal/mol|
|  sn= 7 | S(rot)=       0.01408068 Eh      8.84 kcal/mol|
|  sn= 8 | S(rot)=       0.01395460 Eh      8.76 kcal/mol|
|  sn= 9 | S(rot)=       0.01384339 Eh      8.69 kcal/mol|
|  sn=10 | S(rot)=       0.01374391 Eh      8.62 kcal/mol|
|  sn=11 | S(rot)=       0.01365392 Eh      8.57 kcal/mol|
|  sn=12 | S(rot)=       0.01357177 Eh      8.52 kcal/mol|
 linear molecules ---------------------------------------
|  Dinfh | S(rot)=       0.00998995 Eh      6.27 kcal/mol|
|  Cinfv | S(rot)=       0.01064440 Eh      6.68 kcal/mol|
 --------------------------------------------------------


-------------------
GIBBS FREE ENERGY
-------------------

The Gibbs free energy is G = H - T*S

Total enthalpy                    ...   -878.04291576 Eh 
Total entropy correction          ...     -0.06134929 Eh    -38.50 kcal/mol
-----------------------------------------------------------------------
Final Gibbs free energy         ...   -878.10426505 Eh

For completeness - the Gibbs free energy minus the electronic energy
G-E(el)                           ...      0.22512987 Eh    141.27 kcal/mol


Maximum memory used throughout the entire PROP-calculation: 232.0 MB

--------------------------------
SUGGESTED CITATIONS FOR THIS RUN
--------------------------------

Below you find a list of papers that are relevant to this ORCA run
We neither can nor want to force you to cite these papers, but we appreciate if you do
You receive ORCA, which is the product of decades of hard work by many enthusiastic individuals, for free
The only thing we kindly ask in return is that you cite our papers,
We deeply appreciate it, if you show your appreciation for ORCA by not just citing the generic ORCA reference.

Please note that relegating all ORCA citations to the supporting information does *not* help us.
SI sections are not indexed - citations you put there will not count into any citation statistics
But we need these citations in order to attract the funding resources that allow us to do what we are doing

Therefore, if you are a happy ORCA user, please consider citing a few of the papers listed below in the main body of your paper

In addition to the list printed below, the program has created the file 1globalminimum.bibtex that contains the list in bibtex format
You can import this file easily into all common literature databanks and citation aid programs


List of essential papers. We consider these as the minimum necessary citations

  1. Neese,F.
     Software update: the ORCA program system, version 5.0
     WIRES Comput. Molec. Sci., 2022 12(1)e1606
     doi.org/10.1002/wcms.1606

List of papers to cite with high priority. The work reported in these papers was absolutely
necessary for this run to complete.
Our perspective: the developers of density functionals and basis sets usually get cited in chemistry papers
Good! But without the algorithms to do something with them, the functionals or basis sets would not do anything.
Hence, in our opinion, the algorithm design and method developments papers are equally worthy of getting cited

  1. Neese,F.
     An improvement of the resolution of the identity approximation for the formation of the Coulomb matrix
     J. Comp. Chem., 2003 24(14)1740-1747
     doi.org/10.1002/jcc.10318
  2. Neese,F.; Wennmohs,F.; Hansen,A.; Becker,U.
     Efficient, approximate and parallel Hartree-Fock and hybrid DFT calculations. A 'chain-of-spheres' algorithm for the Hartree-Fock exchange
     Chem. Phys., 2009 356(1-3)98-109
     doi.org/10.1016/j.chemphys.2008.10.036
  3. Bykov,D.; Petrenko,T.; Izsak,R.; Kossmann,S.; Becker,U.; Valeev,E.; Neese,F.
     Efficient implementation of the analytic second derivatives of Hartree-Fock and hybrid DFT energies: a detailed analysis of different approximations
     Molec. Phys., 2015 113 1961-1977
     doi.org/10.1080/00268976.2015.1025114
  4. Garcia-Rates,M.; Neese,F.
     Efficient implementation of the analytical second derivatives of hartree-fock and hybrid DFT energies within the framework of the conductor-like polarizable continuum model
     J. Comput. Chem., 2019 40 1816-1828
     doi.org/10.1002/jcc.25833
  5. Garcia-Rates,M.; Neese,F.
     Effect of the Solute Cavity on the Solvation Energy and its Derivatives within the Framework of the Gaussian Charge Scheme
     J. Comput. Chem., 2020 41 922-939
     doi.org/10.1002/jcc.26139
  6. Helmich-Paris,B.; de Souza,B.; Neese,F.; Izsák,R.
     An improved chain of spheres for exchange algorithm
     J. Chem. Phys., 2021 155 104109
     doi.org/doi: 10.1063/5.0058766.
  7. Neese,F.
     The SHARK Integral Generation and Digestion System
     J. Comp. Chem., 2022  1-16
     doi.org/10.1002/jcc.26942

List of suggested additional citations. These are papers that are important in the 'surrounding' of 
of this run, or papers that preceded the highly important papers. If you like your results we are grateful for a citation.

  1. Izsak,R.; Neese,F.
     An overlap fitted chain of spheres exchange method
     J. Chem. Phys., 2011 135 144105
     doi.org/10.1063/1.3646921
  2. Izsak,R.; Hansen,A.; Neese,F.
     The resolution of identity and chain of spheres approximations for the LPNO-CCSD singles Fock term
     Molec. Phys., 2012 110 2413-2417
     doi.org/10.1080/00268976.2012.687466
  3. Neese,F.
     The ORCA program system
     WIRES Comput. Molec. Sci., 2012 2(1)73-78
     doi.org/10.1002/wcms.81
  4. Izsak,R.; Neese,F.; Klopper,W.
     Robust fitting techniques in the chain of spheres approximation to the Fock exchange: The role of the complementary space
     J. Chem. Phys., 2013 139 
     doi.org/10.1063/1.4819264
  5. Neese,F.
     Software update: the ORCA program system, version 4.0
     WIRES Comput. Molec. Sci., 2018 8(1)1-6
     doi.org/10.1002/wcms.1327
  6. Neese,F.; Wennmohs,F.; Becker,U.; Riplinger,C.
     The ORCA quantum chemistry program package
     J. Chem. Phys., 2020 152 Art. No. L224108
     doi.org/10.1063/5.0004608

List of optional additional citations

  1. Neese,F.
     Approximate second-order SCF convergence for spin unrestricted wavefunctions
     Chem. Phys. Lett., 2000 325(1-3)93-98
     doi.org/10.1016/s0009-2614(00)00662-x

Timings for individual modules:

Sum of individual times          ...     7751.513 sec (= 129.192 min)
Startup calculation              ...       77.250 sec (=   1.288 min)   1.0 %
SCF iterations                   ...     2516.771 sec (=  41.946 min)  32.5 %
Property integrals               ...     1046.788 sec (=  17.446 min)  13.5 %
SCF Response                     ...     1442.932 sec (=  24.049 min)  18.6 %
Property calculations            ...     1372.487 sec (=  22.875 min)  17.7 %
SCF Gradient evaluation          ...     1294.640 sec (=  21.577 min)  16.7 %
Geometry relaxation              ...        0.644 sec (=   0.011 min)   0.0 %
                             ****ORCA TERMINATED NORMALLY****
TOTAL RUN TIME: 0 days 2 hours 9 minutes 17 seconds 249 msec
