
                                 *****************
                                 * O   R   C   A *
                                 *****************

                                            #,                                       
                                            ###                                      
                                            ####                                     
                                            #####                                    
                                            ######                                   
                                           ########,                                 
                                     ,,################,,,,,                         
                               ,,#################################,,                 
                          ,,##########################################,,             
                       ,#########################################, ''#####,          
                    ,#############################################,,   '####,        
                  ,##################################################,,,,####,       
                ,###########''''           ''''###############################       
              ,#####''   ,,,,##########,,,,          '''####'''          '####       
            ,##' ,,,,###########################,,,                        '##       
           ' ,,###''''                  '''############,,,                           
         ,,##''                                '''############,,,,        ,,,,,,###''
      ,#''                                            '''#######################'''  
     '                                                          ''''####''''         
             ,#######,   #######,   ,#######,      ##                                
            ,#'     '#,  ##    ##  ,#'     '#,    #''#        ,####,   ,####,        
            ##       ##  ##   ,#'  ##            #'  '#       #'       #'  '#        
            ##       ##  #######   ##           ,######,      #####,   #    #        
            '#,     ,#'  ##    ##  '#,     ,#' ,#      #,     #,   #   #,  ,#        
             '#######'   ##     ##  '#######'  #'      '#     '####' # '####'        



                #########################################################
                #                        -***-                          #
                #          Department of theory and spectroscopy        #
                #                                                       #
                #                      Frank Neese                      #
                #                                                       #
                #     Directorship, Architecture, Infrastructure        #
                #                    SHARK, DRIVERS                     #
                #        Core code/Algorithms in most modules           #
                #                                                       #
                #        Max Planck Institute fuer Kohlenforschung      #
                #                Kaiser Wilhelm Platz 1                 #
                #                 D-45470 Muelheim/Ruhr                 #
                #                      Germany                          #
                #                                                       #
                #                  All rights reserved                  #
                #                        -***-                          #
                #########################################################


                         Program Version 6.0.1  -  RELEASE   -


 With contributions from (in alphabetic order):
[Max-Planck-Institut fuer Kohlenforschung]                               
  Daniel Aravena         : Magnetic Suceptibility                        
  Michael Atanasov       : Ab Initio Ligand Field Theory (pilot matlab implementation)
  Alexander A. Auer      : GIAO ZORA, VPT2 properties, NMR spectrum      
  Ute Becker             : All parallelization in ORCA, NUMFREQ, NUMCALC 
  Giovanni Bistoni       : ED, misc. LED, open-shell LED, HFLD           
  Martin Brehm           : Molecular dynamics                            
  Dmytro Bykov           : pre 5.0 version of the SCF Hessian            
  Marcos Casanova-Páez   : Triplet and SCS-CIS(D). UHF-(DLPNO)-IP/EA/STEOM-CCSD. UHF-CVS-IP/STEOM-CCSD   
  Vijay G. Chilkuri      : MRCI spin determinant printing, contributions to CSF-ICE 
  Pauline Colinet        : FMM embedding                                 
  Dipayan Datta          : RHF DLPNO-CCSD density                        
  Achintya Kumar Dutta   : EOM-CC, STEOM-CC                              
  Nicolas Foglia         : Exact transition moments, OPA infrastructure, MCD improvements    
  Dmitry Ganyushin       : Spin-Orbit,Spin-Spin,Magnetic field MRCI      
  Miquel Garcia-Rates    : C-PCM and meta-GGA Hessian, CCSD/C-PCM, Gaussian charge scheme 
  Tiago L. C. Gouveia    : GS-ROHF, GS-ROCIS                             
  Yang Guo               : DLPNO-NEVPT2, F12-NEVPT2, CIM, IAO-localization        
  Andreas Hansen         : Spin unrestricted coupled pair/coupled cluster methods 
  Ingolf Harden          : AUTO-CI MPn and infrastructure                
  Benjamin Helmich-Paris : MC-RPA, TRAH-(SCF,CASSCF), AVAS, COSX integrals, SCF dyn. polar. 
  Lee Huntington         : MR-EOM, pCC                                   
  Robert Izsak           : Overlap fitted RIJCOSX, COSX-SCS-MP3, EOM     
  Riya Kayal             : Wick's Theorem for AUTO-CI, AUTO-CI UHF-CCSDT 
  Emily Kempfer          : AUTO-CI, RHF CISDT and CCSDT                  
  Christian Kollmar      : KDIIS, OOCD, Brueckner-CCSD(T), CCSD density, CASPT2, CASPT2-K, improved NEVPT2 
  Axel Koslowski         : Symmetry handling                             
  Simone Kossmann        : meta-GGA functionals, TD-DFT gradient, OOMP2, (MP2 Hessian; deprecated post 5.0) 
  Lucas Lang             : DCDCAS                                        
  Marvin Lechner         : AUTO-CI (C++ implementation), FIC-MRCC        
  Spencer Leger          : CASSCF response                               
  Dagmar Lenk            : GEPOL surface, SMD, ORCA-2-JSON               
  Dimitrios Liakos       : Extrapolation schemes; Compound Job, initial MDCI parallelization 
  Dimitrios Manganas     : Further ROCIS development; embedding schemes. LFT, Crystal Embedding 
  Dimitrios Pantazis     : SARC Basis sets                               
  Anastasios Papadopoulos: AUTO-CI, single reference methods and gradients 
  Taras Petrenko         : pre 6.0 DFT Hessian and TD-DFT gradient, (ASA, deprecated), ECA, 1-Electron XAS/XES, NRVS 
  Peter Pinski           : DLPNO-MP2, DLPNO-MP2 Gradient                 
  Christoph Reimann      : Effective Core Potentials                     
  Marius Retegan         : Local ZFS, SOC                                
  Christoph Riplinger    : Optimizer, TS searches, QM/MM, DLPNO-CCSD(T), (RO)-DLPNO pert. Triples 
  Michael Roemelt        : Original ROCIS implementation                 
  Masaaki Saitow         : Open-shell DLPNO-CCSD energy and density      
  Barbara Sandhoefer     : DKH picture change effects                    
  Kantharuban Sivalingam : CASSCF convergence/infrastructure, NEVPT2 and variants, FIC-MRCI 
  Bernardo de Souza      : ESD, SOC TD-DFT                               
  Georgi L. Stoychev     : AutoAux, RI-MP2 NMR, DLPNO-MP2 response, X2C  
  Van Anh Tran           : RI-MP2 g-tensors                              
  Willem Van den Heuvel  : Paramagnetic NMR                              
  Zikuan Wang            : NOTCH, Electric field optimization            
  Frank Wennmohs         : Technical directorship and infrastructure     
  Hang Xu                : AUTO-CI-Response properties                   
                                                                         
[FACCTs GmbH]                                                            
  Markus Bursch, Miquel Garcia-Rates, Christoph Riplinger, Bernardo de Souza, Georgi L. Stoychev 
                                                                 
  APM, Basis sets (HGBS, AHGBS, def-TZVP (Ac-Lr), def2-XVPD (La-Lu)), CI-OPT, improved COSX, DLPNO-Multilevel,           
  DOCKER, DRACO, updates on ESD, GOAT, IRC, LR-CPCM, MBIS, meta-GGA TD-DFT gradient, ML-optimized integration grids, 
  MM, NACMEs, nearIR, NEB, NEB-TS, NL-DFT gradient (VV10), 2- and 3-layer-ONIOM, interface openCOSMO-RS, QMMM,   
  Crystal-QMMM, SF, symmetry and pop. for TD-DFT, r2SCAN hybrids, SOLVATOR                                   
                                                                         
[Other institutions]                                                     
  V. Asgeirsson          : NEB                                           
  Christoph Bannwarth    : sTDA-DFT, sTD-DFT, PBEh-3c, B97-3c, D3        
  Sebastian Ehlert       : rSCAN, r2SCAN, r2SCAN-3c, D4, dhf basis sets  
  Marvin Friede          : D4 for Fr, Ra, Ac-Lr                          
  Lars Goerigk           : TD-DFT with DH, B97 family of functionals     
  Stefan Grimme          : VdW corrections, initial TS optimization, DFT functionals, gCP, sTDA/sTD-DF 
  Waldemar Hujo          : DFT-NL                                        
  H. Jonsson             : NEB                                           
  Holger Kruse           : gCP                                           
  Marcel Mueller         : wB97X-3c, vDZP basis set                      
  Hagen Neugebauer       : wr2SCAN                                       
  Tobias Risthaus        : range-separated hybrid DFT                    
  Lukas Wittmann         : regularized MP2, r2SCAN double-hybrids, wr2SCAN        
                                                                         
We gratefully acknowledge several colleagues who have allowed us to      
interface, adapt or use parts of their codes:                            
  Ed Valeev, F. Pavosevic, A. Kumar             : LibInt (2-el integral package), F12 methods 
  Garnet Chan, S. Sharma, J. Yang, R. Olivares  : DMRG                   
  Ulf Ekstrom                                   : XCFun DFT Library      
  Mihaly Kallay                                 : mrcc  (arbitrary order and MRCC methods)
  Frank Weinhold                                : gennbo (NPA and NBO analysis)           
  Simon Mueller                                 : openCOSMO-RS                            
  Christopher J. Cramer and Donald G. Truhlar   : smd solvation model                     
  S Lehtola, MJT Oliveira, MAL Marques          : LibXC Library                           
  Liviu Ungur et al                             : ANISO software                          


 Your calculation uses the libint2 library for the computation of 2-el integrals
 For citations please refer to: http://libint.valeyev.net

 Your ORCA version has been built with support for libXC version: 6.2.2
 For citations please refer to: https://libxc.gitlab.io

 This ORCA versions uses:
   CBLAS   interface :  Fast vector & matrix operations
   LAPACKE interface :  Fast linear algebra routines
   SCALAPACK package :  Parallel linear algebra routines
   Shared memory     :  Shared parallel matrices
   BLAS/LAPACK       :  OpenBLAS 0.3.27  USE64BITINT DYNAMIC_ARCH NO_AFFINITY Sandybridge SINGLE_THREADED
        Core in use  :  Sandybridge
   Copyright (c) 2011-2014, The OpenBLAS Project


Warning: RI is on but no J-basis has been assigned. Assigning Def2/J (nothing to worry about!)
================================================================================

----- Orbital basis set information -----
Your calculation utilizes the basis: 6-311G*
   H, Li - Ne  : R. Krishnan, J. S. Binkley, R. Seeger and J. A. Pople, J. Chem. Phys. 72, 650 (1980).
   Na - Ar     : A. D. McLean and G. S. Chandler J. Chem. Phys. 72, 5639, (1980).
   K  - Ca     : J.-P. Blaudeau, M. P. McGrath, L. A. Curtiss and L. Radom, J. Chem. Phys. 107, 5016 (1997).
   Ga - Kr     : L. A. Curtiss, M. P. McGrath, J.-P. Blandeau, N. E. Davis, R. C. Binning and L. Radom, J. Chem. Phys. 103, 6104 (1995).
   Pol./Diff.
   H, Li - Cl  : T. Clark, J. Chandrasekhar and P. v. R. Schleyer, J. Comp. Chem. 4, 294 (1983).
   H - Ne      : M. J. Frisch, J. A. Pople and J. S. Binkley, J. Chem. Phys. 80, 3265 (1984).

----- AuxJ basis set information -----
Your calculation utilizes the auxiliary basis: def2/J
   F. Weigend, Phys. Chem. Chem. Phys. 8, 1057 (2006).

================================================================================
                                        WARNINGS
                       Please study these warnings very carefully!
================================================================================

INFO   : Checking CIS options ...

WARNING: (CIS/TDDFT): Analytic excited state gradients requested
  ===> : turning on equilibrium dielectric conditions.

WARNING: Analytical Frequencies for this method not available!
  ===> : Switching to Numerical Frequencies!

WARNING: Geometry Optimization
  ===> : Switching off AutoStart
         For restart on a previous wavefunction, please use MOREAD

WARNING: CIS/ROCIS methods need fully converged wavefunctions
  ===> : Setting SCFConvForced true
         You can overwrite this default with %scf ConvForced false 


================================================================================
                                       INPUT FILE
================================================================================
NAME = 5higherenergy.inp
|  1> ! B3LYP/G OPT FREQ 6-311G* CPCM(Water)
|  2> 
|  3> %tddft
|  4>     NRoots 3
|  5>     IRoot 1
|  6> end 
|  7> 
|  8> * xyz 0 1 
|  9> C  -3.16652765140291236889 -0.74306232658536242042 -0.23260395303284364665
| 10> C  -2.72502454250235981448 -1.66835731868220293883 -1.17662178665978212067
| 11> C  -1.40623478636057530622 -1.69112794347565587039 -1.54777778511331742806
| 12> C  -2.28650856148217096475 0.15779322876926138441 0.32640277674306772404
| 13> C  -0.91891858506391743688 0.15805687605514262550 -0.02839167910586548604
| 14> O  -2.72215076724391646934 1.04735336039097437499 1.29149978530245812536
| 15> C  -0.48707059912322980821 -0.79029755321136074819 -0.98675870095761919476
| 16> C  0.88020943849359456479 -0.82123664581459432377 -1.38866281531911361924
| 17> C  1.78383560141726471571 0.04548622324398410299 -0.87957862196009617417
| 18> C  0.04582809595598469343 1.07406309668203370222 0.52663740205739550948
| 19> C  1.39247720755366621859 1.01266127853375720314 0.08637011612276701555
| 20> N  -0.34306268141382489922 1.96651042013853727397 1.44913019498465334145
| 21> C  0.53514515350655056380 2.80340975323118879459 1.94507327960850728843
| 22> C  1.88174560364809906332 2.83192402822156363840 1.57281327076481480809
| 23> C  2.30884696868122674118 1.92346947352118791130 0.63617918850486021576
| 24> C  -3.78249178808879449321 1.85373052835113272252 1.03360257547680189916
| 25> O  -4.39397063681265187540 1.85503217363189820688 -0.02679771744772319053
| 26> N  -4.07494699173007823845 2.65625601958666024416 2.05995409818673813618
| 27> C  -5.22418360989218211188 3.53188450322609615029 1.93486386455562087150
| 28> C  -3.31974774128029936904 2.68573648305847001438 3.29395401163845980008
| 29> H  -2.36085820228825804534 2.19977109021847860859 3.13690766923864172711
| 30> H  -3.86619812394461570548 2.17231614813560236499 4.08697906476599825965
| 31> H  -3.15436805346156523555 3.72268772631006861218 3.58138006605286429718
| 32> H  -5.30779196725147173197 4.12791513613782168335 2.83669691066076889996
| 33> H  -6.13399964537575659307 2.94575921272473006951 1.79473352096989602344
| 34> H  -5.10825102351954551949 4.18282087933615454034 1.06688750351485062140
| 35> H  -1.05517894320453997636 -2.40237843274744733435 -2.27916465716426630550
| 36> H  -4.20454839835968297024 -0.71597701528234058976 0.06146110436047669268
| 37> H  -3.43090722900907429960 -2.36158777327065028118 -1.60559001264515854857
| 38> H  1.17238144801934884853 -1.55943501124756234155 -2.11961164592901418757
| 39> H  2.81794377535794193790 0.02439017771021023684 -1.18950073989867144419
| 40> H  0.14814379508631025928 3.49266263713333646734 2.68385392126646271649
| 41> H  2.55528279623241250107 3.54647667123518406385 2.01728311664254844615
| 42> H  3.33926065747511913173 1.89312290188388177015 0.31277667871745656880
| 43> *
| 44> 
| 45>                          ****END OF INPUT****
================================================================================

                       *****************************
                       * Geometry Optimization Run *
                       *****************************

Geometry optimization settings:
Update method            Update   .... BFGS
Choice of coordinates    CoordSys .... (2022) Redundant Internals
Initial Hessian          InHess   .... Almloef's Model
Max. no of cycles        MaxIter  .... 102

Convergence Tolerances:
Energy Change            TolE     ....  5.0000e-06 Eh
Max. Gradient            TolMAXG  ....  3.0000e-04 Eh/bohr
RMS Gradient             TolRMSG  ....  1.0000e-04 Eh/bohr
Max. Displacement        TolMAXD  ....  4.0000e-03 bohr
RMS Displacement         TolRMSD  ....  2.0000e-03 bohr
Strict Convergence                .... False

------------------------------------------------------------------------------
                        ORCA OPTIMIZATION COORDINATE SETUP
------------------------------------------------------------------------------

The optimization will be done in redundant internal coordinates (2022)
Making redundant internal coordinates   ...  (2022 redundants) done
Evaluating the initial hessian          ...  (Almloef) done
Evaluating the coordinates              ...  done
Calculating the B-matrix                .... done
Calculating the G-matrix                .... done
Diagonalizing the G-matrix              .... done
Small eigenvalue found = 2.848e-03
Small eigenvalue found = 8.623e-03
Small eigenvalue found = 1.373e-02
Small eigenvalue found = 2.460e-02
The first mode is                       ....   77
The number of degrees of freedom        ....   96

    -----------------------------------------------------------------
                    Redundant Internal Coordinates


    -----------------------------------------------------------------
         Definition                    Initial Value    Approx d2E/dq
    -----------------------------------------------------------------
      1. B(C   1,C   0)                  1.3937         0.616470   
      2. B(C   2,C   1)                  1.3702         0.671906   
      3. B(C   3,C   0)                  1.3778         0.653322   
      4. B(C   4,C   3)                  1.4129         0.574463   
      5. B(O   5,C   3)                  1.3829         0.574308   
      6. B(C   6,C   4)                  1.4157         0.568411   
      7. B(C   6,C   2)                  1.4040         0.593565   
      8. B(C   7,C   6)                  1.4255         0.548483   
      9. B(C   8,C   7)                  1.3516         0.719364   
     10. B(C   9,C   4)                  1.4415         0.517139   
     11. B(C  10,C   9)                  1.4181         0.563472   
     12. B(C  10,C   8)                  1.4218         0.555815   
     13. B(N  11,C   9)                  1.3412         0.669588   
     14. B(C  12,N  11)                  1.3106         0.749189   
     15. B(C  13,C  12)                  1.3974         0.608043   
     16. B(C  14,C  13)                  1.3729         0.665185   
     17. B(C  14,C  10)                  1.4041         0.593181   
     18. B(C  15,O   5)                  1.3569         0.632038   
     19. B(O  16,C  15)                  1.2241         1.029438   
     20. B(N  17,C  15)                  1.3353         0.684190   
     21. B(C  18,N  17)                  1.4502         0.448549   
     22. B(C  19,N  17)                  1.4470         0.453793   
     23. B(H  20,C  19)                  1.0864         0.364875   
     24. B(H  21,C  19)                  1.0914         0.358287   
     25. B(H  22,C  19)                  1.0887         0.361846   
     26. B(H  23,C  18)                  1.0842         0.367820   
     27. B(H  24,C  18)                  1.0913         0.358379   
     28. B(H  25,C  18)                  1.0911         0.358622   
     29. B(H  26,C   2)                  1.0789         0.375075   
     30. B(H  27,C   0)                  1.0792         0.374660   
     31. B(H  28,C   1)                  1.0784         0.375837   
     32. B(H  29,C   7)                  1.0792         0.374729   
     33. B(H  30,C   8)                  1.0798         0.373908   
     34. B(H  31,C  12)                  1.0820         0.370895   
     35. B(H  32,C  13)                  1.0779         0.376517   
     36. B(H  33,C  14)                  1.0804         0.373027   
     37. A(C   1,C   0,C   3)          120.4357         0.437728   
     38. A(C   3,C   0,H  27)          119.1670         0.358461   
     39. A(C   1,C   0,H  27)          120.3937         0.354943   
     40. A(C   2,C   1,H  28)          120.7697         0.360370   
     41. A(C   0,C   1,C   2)          119.9618         0.439949   
     42. A(C   0,C   1,H  28)          119.2684         0.355132   
     43. A(C   1,C   2,H  26)          120.5140         0.360245   
     44. A(C   1,C   2,C   6)          120.7452         0.436954   
     45. A(C   6,C   2,H  26)          118.7407         0.352740   
     46. A(C   4,C   3,O   5)          118.6882         0.419590   
     47. A(C   0,C   3,C   4)          121.0955         0.432202   
     48. A(C   0,C   3,O   5)          120.1651         0.429357   
     49. A(C   3,C   4,C   9)          123.4533         0.414516   
     50. A(C   3,C   4,C   6)          117.7182         0.421556   
     51. A(C   6,C   4,C   9)          118.8272         0.413736   
     52. A(C   3,O   5,C  15)          119.7228         0.424035   
     53. A(C   4,C   6,C   7)          119.8665         0.418090   
     54. A(C   2,C   6,C   7)          120.0914         0.421331   
     55. A(C   2,C   6,C   4)          120.0401         0.424027   
     56. A(C   6,C   7,H  29)          117.7431         0.348012   
     57. A(C   6,C   7,C   8)          121.4091         0.436109   
     58. A(C   8,C   7,H  29)          120.8472         0.364410   
     59. A(C   7,C   8,H  30)          121.3083         0.364273   
     60. A(C  10,C   8,H  30)          118.1575         0.348663   
     61. A(C   7,C   8,C  10)          120.5341         0.437154   
     62. A(C   4,C   9,C  10)          119.2415         0.413095   
     63. A(C  10,C   9,N  11)          121.1787         0.429784   
     64. A(C   4,C   9,N  11)          119.5798         0.423230   
     65. A(C   9,C  10,C  14)          118.0395         0.423317   
     66. A(C   8,C  10,C  14)          121.8446         0.422283   
     67. A(C   8,C  10,C   9)          120.1152         0.418429   
     68. A(C   9,N  11,C  12)          119.4005         0.449490   
     69. A(N  11,C  12,H  31)          115.1826         0.364026   
     70. A(N  11,C  12,C  13)          123.9146         0.444635   
     71. A(C  13,C  12,H  31)          120.9028         0.353511   
     72. A(C  12,C  13,H  32)          120.3873         0.354413   
     73. A(C  12,C  13,C  14)          117.9051         0.438062   
     74. A(C  14,C  13,H  32)          121.7071         0.359864   
     75. A(C  10,C  14,H  33)          119.1435         0.352375   
     76. A(C  10,C  14,C  13)          119.5587         0.436112   
     77. A(C  13,C  14,H  33)          121.2977         0.359294   
     78. A(O  16,C  15,N  17)          123.7668         0.478270   
     79. A(O   5,C  15,N  17)          112.4728         0.437578   
     80. A(O   5,C  15,O  16)          123.7563         0.471346   
     81. A(C  18,N  17,C  19)          118.3485         0.382921   
     82. A(C  15,N  17,C  19)          123.6015         0.412395   
     83. A(C  15,N  17,C  18)          118.0444         0.411545   
     84. A(H  24,C  18,H  25)          107.8694         0.290433   
     85. A(H  23,C  18,H  25)          109.9932         0.291622   
     86. A(N  17,C  18,H  25)          110.1589         0.332020   
     87. A(H  23,C  18,H  24)          109.7410         0.291591   
     88. A(N  17,C  18,H  24)          110.3319         0.331983   
     89. A(N  17,C  18,H  23)          108.7407         0.333417   
     90. A(H  21,C  19,H  22)          109.4085         0.290830   
     91. A(H  20,C  19,H  22)          109.2775         0.291664   
     92. A(N  17,C  19,H  22)          108.8944         0.333154   
     93. A(H  20,C  19,H  21)          109.6658         0.291211   
     94. A(N  17,C  19,H  21)          110.4112         0.332609   
     95. A(N  17,C  19,H  20)          109.1622         0.333616   
     96. D(H  28,C   1,C   0,C   3)   -179.7019         0.026279   
     97. D(C   2,C   1,C   0,C   3)      0.4106         0.026279   
     98. D(H  28,C   1,C   0,H  27)     -0.3943         0.026279   
     99. D(C   2,C   1,C   0,H  27)    179.7183         0.026279   
    100. D(C   6,C   2,C   1,C   0)      0.0282         0.031587   
    101. D(H  26,C   2,C   1,C   0)   -179.8811         0.031587   
    102. D(C   6,C   2,C   1,H  28)   -179.8576         0.031587   
    103. D(H  26,C   2,C   1,H  28)      0.2331         0.031587   
    104. D(O   5,C   3,C   0,C   1)   -178.0892         0.029740   
    105. D(C   4,C   3,C   0,H  27)    179.9587         0.029740   
    106. D(C   4,C   3,C   0,C   1)     -0.7252         0.029740   
    107. D(O   5,C   3,C   0,H  27)      2.5947         0.029740   
    108. D(C   6,C   4,C   3,O   5)    177.9858         0.022653   
    109. D(C   9,C   4,C   3,C   0)   -179.8319         0.022653   
    110. D(C   9,C   4,C   3,O   5)     -2.4299         0.022653   
    111. D(C   6,C   4,C   3,C   0)      0.5838         0.022653   
    112. D(C  15,O   5,C   3,C   4)    128.1478         0.023961   
    113. D(C  15,O   5,C   3,C   0)    -54.4253         0.023961   
    114. D(C   7,C   6,C   4,C   9)     -0.2610         0.022158   
    115. D(C   7,C   6,C   4,C   3)    179.3431         0.022158   
    116. D(C   2,C   6,C   4,C   9)   -179.7496         0.022158   
    117. D(C   2,C   6,C   4,C   3)     -0.1455         0.022158   
    118. D(C   7,C   6,C   2,H  26)      0.2691         0.024260   
    119. D(C   7,C   6,C   2,C   1)   -179.6418         0.024260   
    120. D(C   4,C   6,C   2,H  26)    179.7566         0.024260   
    121. D(C   4,C   6,C   2,C   1)     -0.1543         0.024260   
    122. D(H  29,C   7,C   6,C   4)    179.8681         0.020576   
    123. D(H  29,C   7,C   6,C   2)     -0.6435         0.020576   
    124. D(C   8,C   7,C   6,C   4)     -0.4074         0.020576   
    125. D(C   8,C   7,C   6,C   2)    179.0810         0.020576   
    126. D(C  10,C   8,C   7,C   6)      0.4860         0.036620   
    127. D(H  30,C   8,C   7,H  29)      0.0808         0.036620   
    128. D(H  30,C   8,C   7,C   6)   -179.6351         0.036620   
    129. D(C  10,C   8,C   7,H  29)   -179.7980         0.036620   
    130. D(N  11,C   9,C   4,C   6)   -179.0884         0.018234   
    131. D(N  11,C   9,C   4,C   3)      1.3317         0.018234   
    132. D(C  10,C   9,C   4,C   6)      0.8320         0.018234   
    133. D(C  10,C   9,C   4,C   3)   -178.7479         0.018234   
    134. D(C  14,C  10,C   9,N  11)     -0.5608         0.021759   
    135. D(C  14,C  10,C   9,C   4)    179.5201         0.021759   
    136. D(C   8,C  10,C   9,N  11)    179.1503         0.021759   
    137. D(C   8,C  10,C   9,C   4)     -0.7688         0.021759   
    138. D(C  14,C  10,C   8,H  30)     -0.0723         0.021149   
    139. D(C  14,C  10,C   8,C   7)    179.8103         0.021149   
    140. D(C   9,C  10,C   8,H  30)   -179.7722         0.021149   
    141. D(C   9,C  10,C   8,C   7)      0.1105         0.021149   
    142. D(C  12,N  11,C   9,C  10)      0.5200         0.033302   
    143. D(C  12,N  11,C   9,C   4)   -179.5612         0.033302   
    144. D(H  31,C  12,N  11,C   9)   -179.9751         0.042619   
    145. D(C  13,C  12,N  11,C   9)     -0.0676         0.042619   
    146. D(H  32,C  13,C  12,H  31)     -0.1653         0.025525   
    147. D(H  32,C  13,C  12,N  11)    179.9322         0.025525   
    148. D(C  14,C  13,C  12,H  31)    179.5703         0.025525   
    149. D(C  14,C  13,C  12,N  11)     -0.3322         0.025525   
    150. D(H  33,C  14,C  13,H  32)      0.0933         0.030911   
    151. D(H  33,C  14,C  13,C  12)   -179.6386         0.030911   
    152. D(C  10,C  14,C  13,H  32)   -179.9997         0.030911   
    153. D(C  10,C  14,C  13,C  12)      0.2684         0.030911   
    154. D(H  33,C  14,C  10,C   9)   -179.9398         0.024227   
    155. D(H  33,C  14,C  10,C   8)      0.3543         0.024227   
    156. D(C  13,C  14,C  10,C   9)      0.1512         0.024227   
    157. D(C  13,C  14,C  10,C   8)   -179.5547         0.024227   
    158. D(O  16,C  15,O   5,C   3)     -0.4499         0.029392   
    159. D(N  17,C  15,O   5,C   3)   -179.7384         0.029392   
    160. D(C  19,N  17,C  15,O  16)   -177.6819         0.038564   
    161. D(C  19,N  17,C  15,O   5)      1.6066         0.038564   
    162. D(C  18,N  17,C  15,O  16)      3.2009         0.038564   
    163. D(C  18,N  17,C  15,O   5)   -177.5106         0.038564   
    164. D(H  25,C  18,N  17,C  15)    -58.0696         0.017162   
    165. D(H  24,C  18,N  17,C  19)   -118.2462         0.017162   
    166. D(H  24,C  18,N  17,C  15)     60.9183         0.017162   
    167. D(H  23,C  18,N  17,C  19)      2.1578         0.017162   
    168. D(H  23,C  18,N  17,C  15)   -178.6777         0.017162   
    169. D(H  22,C  19,N  17,C  15)    135.5879         0.017571   
    170. D(H  21,C  19,N  17,C  18)     74.8429         0.017571   
    171. D(H  21,C  19,N  17,C  15)   -104.2717         0.017571   
    172. D(H  20,C  19,N  17,C  18)   -164.5298         0.017571   
    173. D(H  20,C  19,N  17,C  15)     16.3556         0.017571   
    -----------------------------------------------------------------

Number of atoms                         .... 34
Number of degrees of freedom            .... 173


         *************************************************************
         *                GEOMETRY OPTIMIZATION CYCLE   1            *
         *************************************************************
---------------------------------
CARTESIAN COORDINATES (ANGSTROEM)
---------------------------------
  C     -3.166528   -0.743062   -0.232604
  C     -2.725025   -1.668357   -1.176622
  C     -1.406235   -1.691128   -1.547778
  C     -2.286509    0.157793    0.326403
  C     -0.918919    0.158057   -0.028392
  O     -2.722151    1.047353    1.291500
  C     -0.487071   -0.790298   -0.986759
  C      0.880209   -0.821237   -1.388663
  C      1.783836    0.045486   -0.879579
  C      0.045828    1.074063    0.526637
  C      1.392477    1.012661    0.086370
  N     -0.343063    1.966510    1.449130
  C      0.535145    2.803410    1.945073
  C      1.881746    2.831924    1.572813
  C      2.308847    1.923469    0.636179
  C     -3.782492    1.853731    1.033603
  O     -4.393971    1.855032   -0.026798
  N     -4.074947    2.656256    2.059954
  C     -5.224184    3.531885    1.934864
  C     -3.319748    2.685736    3.293954
  H     -2.360858    2.199771    3.136908
  H     -3.866198    2.172316    4.086979
  H     -3.154368    3.722688    3.581380
  H     -5.307792    4.127915    2.836697
  H     -6.134000    2.945759    1.794734
  H     -5.108251    4.182821    1.066888
  H     -1.055179   -2.402378   -2.279165
  H     -4.204548   -0.715977    0.061461
  H     -3.430907   -2.361588   -1.605590
  H      1.172381   -1.559435   -2.119612
  H      2.817944    0.024390   -1.189501
  H      0.148144    3.492663    2.683854
  H      2.555283    3.546477    2.017283
  H      3.339261    1.893123    0.312777

----------------------------
CARTESIAN COORDINATES (A.U.)
----------------------------
  NO LB      ZA    FRAG     MASS         X           Y           Z
   0 C     6.0000    0    12.011   -5.983870   -1.404184   -0.439558
   1 C     6.0000    0    12.011   -5.149550   -3.152738   -2.223493
   2 C     6.0000    0    12.011   -2.657399   -3.195769   -2.924876
   3 C     6.0000    0    12.011   -4.320875    0.298186    0.616812
   4 C     6.0000    0    12.011   -1.736504    0.298684   -0.053652
   5 O     8.0000    0    15.999   -5.144119    1.979211    2.440581
   6 C     6.0000    0    12.011   -0.920430   -1.493446   -1.864704
   7 C     6.0000    0    12.011    1.663355   -1.551912   -2.624192
   8 C     6.0000    0    12.011    3.370961    0.085957   -1.662163
   9 C     6.0000    0    12.011    0.086603    2.029685    0.995200
  10 C     6.0000    0    12.011    2.631401    1.913652    0.163216
  11 N     7.0000    0    14.007   -0.648295    3.716166    2.738459
  12 C     6.0000    0    12.011    1.011278    5.297677    3.675656
  13 C     6.0000    0    12.011    3.555984    5.351561    2.972186
  14 C     6.0000    0    12.011    4.363088    3.634831    1.202204
  15 C     6.0000    0    12.011   -7.147874    3.503043    1.953226
  16 O     8.0000    0    15.999   -8.303401    3.505503   -0.050640
  17 N     7.0000    0    14.007   -7.700534    5.019596    3.892749
  18 C     6.0000    0    12.011   -9.872276    6.674294    3.656363
  19 C     6.0000    0    12.011   -6.273414    5.075306    6.224671
  20 H     1.0000    0     1.008   -4.461375    4.156965    5.927896
  21 H     1.0000    0     1.008   -7.306056    4.105083    7.723271
  22 H     1.0000    0     1.008   -5.960892    7.034860    6.767828
  23 H     1.0000    0     1.008  -10.030273    7.800629    5.360580
  24 H     1.0000    0     1.008  -11.591579    5.566678    3.391555
  25 H     1.0000    0     1.008   -9.653195    7.904386    2.016125
  26 H     1.0000    0     1.008   -1.993999   -4.539837   -4.306997
  27 H     1.0000    0     1.008   -7.945445   -1.353000    0.116145
  28 H     1.0000    0     1.008   -6.483475   -4.462754   -3.034125
  29 H     1.0000    0     1.008    2.215480   -2.946905   -4.005486
  30 H     1.0000    0     1.008    5.325142    0.046091   -2.247831
  31 H     1.0000    0     1.008    0.279951    6.600176    5.071749
  32 H     1.0000    0     1.008    4.828785    6.701870    3.812113
  33 H     1.0000    0     1.008    6.310288    3.577484    0.591062

--------------------------------
INTERNAL COORDINATES (ANGSTROEM)
--------------------------------
 C      0   0   0     0.000000000000     0.00000000     0.00000000
 C      1   0   0     1.393651853145     0.00000000     0.00000000
 C      2   1   0     1.370212281891   119.96181946     0.00000000
 C      1   2   3     1.377847180994   120.43572082     0.41058252
 C      4   1   2     1.412862880470   121.09553700   359.27478893
 O      4   1   2     1.382936583919   120.16505446   181.91083795
 C      3   2   1     1.403958905350   120.74516981     0.02815117
 C      7   3   2     1.425460924002   120.09140944   180.35822381
 C      8   7   3     1.351634377336   121.40909611   179.08100191
 C      5   4   1     1.441478697624   123.45334760   180.16805647
 C     10   5   4     1.418121749394   119.24145170   181.25211143
 N     10   5   4     1.341152942386   119.57977873     1.33170346
 C     12  10   5     1.310575842228   119.40046974   180.43883697
 C     13  12  10     1.397398780014   123.91455437   359.93242982
 C     14  13  12     1.372948891263   117.90514691   359.66781346
 C      6   4   1     1.356863363913   119.72278351   305.57471398
 O     16   6   4     1.224073877653   123.75634163   359.55010549
 N     16   6   4     1.335280741413   112.47275358   180.26155758
 C     18  16   6     1.450212954168   118.04436632   182.48940860
 C     18  16   6     1.447048994335   123.60150221     1.60655494
 H     20  18  16     1.086413855162   109.16224947    16.35559810
 H     20  18  16     1.091373994520   110.41115239   255.72826925
 H     20  18  16     1.088683635764   108.89444866   135.58789093
 H     19  18  16     1.084225860159   108.74071231   181.32227105
 H     19  18  16     1.091304076682   110.33190252    60.91826892
 H     19  18  16     1.091119376444   110.15892827   301.93044583
 H      3   2   1     1.078908809915   120.51402711   180.11889029
 H      1   2   3     1.079210333151   120.39369160   179.71827568
 H      2   1   3     1.078356420291   119.26838972   179.88747371
 H      8   7   3     1.079160554713   117.74310265   359.35651438
 H      9   8   7     1.079757601379   121.30830068   180.36486456
 H     13  12  10     1.081959530609   115.18258598   180.02489706
 H     14  13  12     1.077864218409   120.38725159   179.93218303
 H     15  14  13     1.080399216864   121.29772134   180.36136091

---------------------------
INTERNAL COORDINATES (A.U.)
---------------------------
 C      0   0   0     0.000000000000     0.00000000     0.00000000
 C      1   0   0     2.633620328476     0.00000000     0.00000000
 C      2   1   0     2.589325958110   119.96181946     0.00000000
 C      1   2   3     2.603753826474   120.43572082     0.41058252
 C      4   1   2     2.669923908872   121.09553700   359.27478893
 O      4   1   2     2.613371404188   120.16505446   181.91083795
 C      3   2   1     2.653097834391   120.74516981     0.02815117
 C      7   3   2     2.693730760971   120.09140944   180.35822381
 C      8   7   3     2.554218806359   121.40909611   179.08100191
 C      5   4   1     2.723999966390   123.45334760   180.16805647
 C     10   5   4     2.679861730911   119.24145170   181.25211143
 N     10   5   4     2.534411764812   119.57977873     1.33170346
 C     12  10   5     2.476629419545   119.40046974   180.43883697
 C     13  12  10     2.640700994102   123.91455437   359.93242982
 C     14  13  12     2.594497400358   117.90514691   359.66781346
 C      6   4   1     2.564100158947   119.72278351   305.57471398
 O     16   6   4     2.313164396450   123.75634163   359.55010549
 N     16   6   4     2.523314913170   112.47275358   180.26155758
 C     18  16   6     2.740505319241   118.04436632   182.48940860
 C     18  16   6     2.734526301659   123.60150221     1.60655494
 H     20  18  16     2.053024654354   109.16224947    16.35559810
 H     20  18  16     2.062397959326   110.41115239   255.72826925
 H     20  18  16     2.057313918076   108.89444866   135.58789093
 H     19  18  16     2.048889943015   108.74071231   181.32227105
 H     19  18  16     2.062265833760   110.33190252    60.91826892
 H     19  18  16     2.061916800894   110.15892827   301.93044583
 H      3   2   1     2.038842174214   120.51402711   180.11889029
 H      1   2   3     2.039411970554   120.39369160   179.71827568
 H      2   1   3     2.037798309107   119.26838972   179.88747371
 H      8   7   3     2.039317902938   117.74310265   359.35651438
 H      9   8   7     2.040446157626   121.30830068   180.36486456
 H     13  12  10     2.044607200837   115.18258598   180.02489706
 H     14  13  12     2.036868182346   120.38725159   179.93218303
 H     15  14  13     2.041658635176   121.29772134   180.36136091

---------------------
BASIS SET INFORMATION
---------------------
There are 4 groups of distinct atoms

 Group   1 Type C   : 11s5p1d contracted to 4s3p1d pattern {6311/311/1}
 Group   2 Type O   : 11s5p1d contracted to 4s3p1d pattern {6311/311/1}
 Group   3 Type N   : 11s5p1d contracted to 4s3p1d pattern {6311/311/1}
 Group   4 Type H   : 5s contracted to 3s pattern {311}

Atom   0C    basis set group =>   1
Atom   1C    basis set group =>   1
Atom   2C    basis set group =>   1
Atom   3C    basis set group =>   1
Atom   4C    basis set group =>   1
Atom   5O    basis set group =>   2
Atom   6C    basis set group =>   1
Atom   7C    basis set group =>   1
Atom   8C    basis set group =>   1
Atom   9C    basis set group =>   1
Atom  10C    basis set group =>   1
Atom  11N    basis set group =>   3
Atom  12C    basis set group =>   1
Atom  13C    basis set group =>   1
Atom  14C    basis set group =>   1
Atom  15C    basis set group =>   1
Atom  16O    basis set group =>   2
Atom  17N    basis set group =>   3
Atom  18C    basis set group =>   1
Atom  19C    basis set group =>   1
Atom  20H    basis set group =>   4
Atom  21H    basis set group =>   4
Atom  22H    basis set group =>   4
Atom  23H    basis set group =>   4
Atom  24H    basis set group =>   4
Atom  25H    basis set group =>   4
Atom  26H    basis set group =>   4
Atom  27H    basis set group =>   4
Atom  28H    basis set group =>   4
Atom  29H    basis set group =>   4
Atom  30H    basis set group =>   4
Atom  31H    basis set group =>   4
Atom  32H    basis set group =>   4
Atom  33H    basis set group =>   4
---------------------------------
AUXILIARY/J BASIS SET INFORMATION
---------------------------------
There are 4 groups of distinct atoms

 Group   1 Type C   : 12s5p4d2f1g contracted to 6s4p3d1f1g pattern {711111/2111/211/2/1}
 Group   2 Type O   : 12s5p4d2f1g contracted to 6s4p3d1f1g pattern {711111/2111/211/2/1}
 Group   3 Type N   : 12s5p4d2f1g contracted to 6s4p3d1f1g pattern {711111/2111/211/2/1}
 Group   4 Type H   : 5s2p1d contracted to 3s1p1d pattern {311/2/1}

Atom   0C    basis set group =>   1
Atom   1C    basis set group =>   1
Atom   2C    basis set group =>   1
Atom   3C    basis set group =>   1
Atom   4C    basis set group =>   1
Atom   5O    basis set group =>   2
Atom   6C    basis set group =>   1
Atom   7C    basis set group =>   1
Atom   8C    basis set group =>   1
Atom   9C    basis set group =>   1
Atom  10C    basis set group =>   1
Atom  11N    basis set group =>   3
Atom  12C    basis set group =>   1
Atom  13C    basis set group =>   1
Atom  14C    basis set group =>   1
Atom  15C    basis set group =>   1
Atom  16O    basis set group =>   2
Atom  17N    basis set group =>   3
Atom  18C    basis set group =>   1
Atom  19C    basis set group =>   1
Atom  20H    basis set group =>   4
Atom  21H    basis set group =>   4
Atom  22H    basis set group =>   4
Atom  23H    basis set group =>   4
Atom  24H    basis set group =>   4
Atom  25H    basis set group =>   4
Atom  26H    basis set group =>   4
Atom  27H    basis set group =>   4
Atom  28H    basis set group =>   4
Atom  29H    basis set group =>   4
Atom  30H    basis set group =>   4
Atom  31H    basis set group =>   4
Atom  32H    basis set group =>   4
Atom  33H    basis set group =>   4
------------------------------------------------------------------------------
                             ORCA STARTUP CALCULATIONS
                           -- RI-GTO INTEGRALS CHOSEN --
------------------------------------------------------------------------------
------------------------------------------------------------------------------
                   ___                                                        
                  /   \      - P O W E R E D   B Y -                         
                 /     \                                                     
                 |  |  |   _    _      __       _____    __    __             
                 |  |  |  | |  | |    /  \     |  _  \  |  |  /  |          
                  \  \/   | |  | |   /    \    | | | |  |  | /  /          
                 / \  \   | |__| |  /  /\  \   | |_| |  |  |/  /          
                |  |  |   |  __  | /  /__\  \  |    /   |      \           
                |  |  |   | |  | | |   __   |  |    \   |  |\   \          
                \     /   | |  | | |  |  |  |  | |\  \  |  | \   \       
                 \___/    |_|  |_| |__|  |__|  |_| \__\ |__|  \__/        
                                                                              
                      - O R C A' S   B I G   F R I E N D -                    
                                      &                                       
                       - I N T E G R A L  F E E D E R -                       
                                                                              
 v1 FN, 2020, v2 2021, v3 2022-2024                                           
------------------------------------------------------------------------------


----------------------
SHARK INTEGRAL PACKAGE
----------------------

Number of atoms                             ...     34
Number of basis functions                   ...    402
Number of shells                            ...    202
Maximum angular momentum                    ...      2
Integral batch strategy                     ... SHARK/LIBINT Hybrid
RI-J (if used) integral strategy            ... SPLIT-RIJ (Revised 2003 algorithm where possible)
Printlevel                                  ...      1
Contraction scheme used                     ... SEGMENTED contraction
Prescreening option                         ... SCHWARTZ
   Thresh                                   ... 2.500e-11
   Tcut                                     ... 2.500e-12
   Tpresel                                  ... 2.500e-12 
Coulomb Range Separation                    ... NOT USED
Exchange Range Separation                   ... NOT USED
Multipole approximations                    ... NOT USED
Finite Nucleus Model                        ... NOT USED
CABS basis                                  ... NOT available
Auxiliary Coulomb fitting basis             ... AVAILABLE
   # of basis functions in Aux-J            ...   1134
   # of shells in Aux-J                     ...    370
   Maximum angular momentum in Aux-J        ...      4
Auxiliary J/K fitting basis                 ... NOT available
Auxiliary Correlation fitting basis         ... NOT available
Auxiliary 'external' fitting basis          ... NOT available

Checking pre-screening integrals            ... done (  0.0 sec) Dimension = 202
Check shell pair data                       ... done (  0.0 sec)
Shell pair information
Shell pair cut-off parameter TPreSel        ...   2.5e-12
Total number of shell pairs                 ...     20503
Shell pairs after pre-screening             ...     14856
Total number of primitive shell pairs       ...     84717
Primitive shell pairs kept                  ...     37241
          la=0 lb=0:   5085 shell pairs
          la=1 lb=0:   5516 shell pairs
          la=1 lb=1:   1512 shell pairs
          la=2 lb=0:   1651 shell pairs
          la=2 lb=1:    937 shell pairs
          la=2 lb=2:    155 shell pairs

Calculating one electron integrals          ... done (  0.1 sec)
Calculating RI/J V-Matrix + Cholesky decomp.... done (  0.4 sec)
Calculating Nuclear repulsion               ... done (  0.0 sec) ENN=   1503.876117705316 Eh

Diagonalization of the overlap matrix:
Smallest eigenvalue                        ... 7.727e-05
Time for diagonalization                   ...    0.027 sec
Threshold for overlap eigenvalues          ... 1.000e-07
Number of eigenvalues below threshold      ... 0
Time for construction of square roots      ...    0.031 sec
Total time needed                          ...    0.071 sec

-------------------
DFT GRID GENERATION
-------------------

General Integration Accuracy     IntAcc      ... 4.388
Radial Grid Type                 RadialGrid  ... OptM3 with GC (2021)
Angular Grid (max. ang.)         AngularGrid ... 4 (Lebedev-302)
Angular grid pruning method      GridPruning ... 4 (adaptive)
Weight generation scheme         WeightScheme... mBecke (2022)
Basis function cutoff            BFCut       ... 1.0000e-11
Integration weight cutoff        WCut        ... 1.0000e-14
Partially contracted basis set               ... off
Rotationally invariant grid construction     ... off
Angular grids for H and He will be reduced by one unit

Total number of grid points                  ...   164433
Total number of batches                      ...     2589
Average number of points per batch           ...       63
Average number of grid points per atom       ...     4836

--------------------
COSX GRID GENERATION
--------------------

GRIDX 1
-------
General Integration Accuracy     IntAcc      ... 3.816
Radial Grid Type                 RadialGrid  ... OptM3 with GC (2021)
Angular Grid (max. ang.)         AngularGrid ... 1 (Lebedev-50)
Angular grid pruning method      GridPruning ... 4 (adaptive)
Weight generation scheme         WeightScheme... mBecke (2022)
Basis function cutoff            BFCut       ... 1.0000e-11
Integration weight cutoff        WCut        ... 1.0000e-14
Partially contracted basis set               ... on
Rotationally invariant grid construction     ... off
Angular grids for H and He will be reduced by one unit

Total number of grid points                  ...    20942
Total number of batches                      ...      179
Average number of points per batch           ...      116
Average number of grid points per atom       ...      616
UseSFitting                                  ... on

GRIDX 2
-------
General Integration Accuracy     IntAcc      ... 4.020
Radial Grid Type                 RadialGrid  ... OptM3 with GC (2021)
Angular Grid (max. ang.)         AngularGrid ... 2 (Lebedev-110)
Angular grid pruning method      GridPruning ... 4 (adaptive)
Weight generation scheme         WeightScheme... mBecke (2022)
Basis function cutoff            BFCut       ... 1.0000e-11
Integration weight cutoff        WCut        ... 1.0000e-14
Partially contracted basis set               ... on
Rotationally invariant grid construction     ... off
Angular grids for H and He will be reduced by one unit

Total number of grid points                  ...    45726
Total number of batches                      ...      372
Average number of points per batch           ...      122
Average number of grid points per atom       ...     1345
UseSFitting                                  ... on

GRIDX 3
-------
General Integration Accuracy     IntAcc      ... 4.338
Radial Grid Type                 RadialGrid  ... OptM3 with GC (2021)
Angular Grid (max. ang.)         AngularGrid ... 3 (Lebedev-194)
Angular grid pruning method      GridPruning ... 4 (adaptive)
Weight generation scheme         WeightScheme... mBecke (2022)
Basis function cutoff            BFCut       ... 1.0000e-11
Integration weight cutoff        WCut        ... 1.0000e-14
Partially contracted basis set               ... on
Rotationally invariant grid construction     ... off
Angular grids for H and He will be reduced by one unit

Total number of grid points                  ...   100075
Total number of batches                      ...      798
Average number of points per batch           ...      125
Average number of grid points per atom       ...     2943
UseSFitting                                  ... on
Initializing property integral containers    ... done (  0.0 sec)

SHARK setup successfully completed in   8.6 seconds

Maximum memory used throughout the entire STARTUP-calculation: 79.9 MB
-------------------------------------------------------------------------------
                                 ORCA GUESS
                   Start orbitals & Density for SCF / CASSCF
-------------------------------------------------------------------------------

------------
SCF SETTINGS
------------
Hamiltonian:
 Density Functional     Method          .... DFT(GTOs)
 Exchange Functional    Exchange        .... B88
   X-Alpha parameter    XAlpha          ....  0.666667
   Becke's b parameter  XBeta           ....  0.004200
 Correlation Functional Correlation     .... LYP
 LDA part of GGA corr.  LDAOpt          .... VWN-3
 Gradients option       PostSCFGGA      .... off
 Hybrid DFT is turned on
   Fraction HF Exchange ScalHFX         ....  0.200000
   Scaling of DF-GGA-X  ScalDFX         ....  0.720000
   Scaling of DF-GGA-C  ScalDFC         ....  0.810000
   Scaling of DF-LDA-C  ScalLDAC        ....  1.000000
   Perturbative correction              ....  0.000000
   NL short-range parameter             ....  4.800000
 RI-approximation to the Coulomb term is turned on
   Number of AuxJ basis functions       .... 1134
   RIJ-COSX (HFX calculated with COS-X)).... on


General Settings:
 Integral files         IntName         .... 5higherenergy
 Hartree-Fock type      HFTyp           .... RHF
 Total Charge           Charge          ....    0
 Multiplicity           Mult            ....    1
 Number of Electrons    NEL             ....  140
 Basis Dimension        Dim             ....  402
 Nuclear Repulsion      ENuc            ....   1503.8761177053 Eh

Convergence Acceleration:
 AO-DIIS                CNVDIIS         .... on
   Start iteration      DIISMaxIt       ....    12
   Startup error        DIISStart       ....  0.200000
   # of expansion vecs  DIISMaxEq       ....     5
   Bias factor          DIISBfac        ....   1.050
   Max. coefficient     DIISMaxC        ....  10.000
 MO-DIIS                CNVKDIIS        .... off
 Trust-Rad. Augm. Hess. CNVTRAH         .... auto
   Auto Start mean grad. ratio tolernc. ....  1.125000
   Auto Start start iteration           ....    50
   Auto Start num. interpolation iter.  ....    10
   Max. Number of Micro iterations      ....    24
   Max. Number of Macro iterations      .... Maxiter - #DIIS iter
   Number of Davidson start vectors     ....     2
   Converg. threshold    (grad. norm)   ....   1.000e-05
   Grad. Scal. Fac. for Micro threshold ....   0.100
   Minimum threshold for Micro iter.    ....   1.000e-02
   NR start threshold (gradient norm)   ....   1.000e-04
   Initial trust radius                 ....   0.400
   Minimum AH scaling param. (alpha)    ....   1.000
   Maximum AH scaling param. (alpha)    .... 1000.000
   Quad. conv. algorithm                .... NR
   White noise on init. David. guess    .... on
   Maximum white noise                  ....   0.010
   Pseudo random numbers                .... off
   Inactive MOs                         .... canonical
   Orbital update algorithm             .... Taylor
   Preconditioner                       .... Diag
   Full preconditioner red. dimension   ....   250
 SOSCF                  CNVSOSCF        .... on
   Start iteration      SOSCFMaxIt      ....   150
   Startup grad/error   SOSCFStart      ....  0.003300
   Hessian update       SOSCFHessUp     .... L-BFGS
 Level Shifting         CNVShift        .... on
   Level shift para.    LevelShift      ....    0.2500
   Turn off err/grad.   ShiftErr        ....    0.0010
 Zerner damping         CNVZerner       .... off
 Static damping         CNVDamp         .... on
   Fraction old density DampFac         ....    0.7000
   Max. Damping (<1)    DampMax         ....    0.9800
   Min. Damping (>=0)   DampMin         ....    0.0000
   Turn off err/grad.   DampErr         ....    0.1000

SCF Procedure:
 Maximum # iterations   MaxIter         ....   125
 SCF integral mode      SCFMode         .... Direct
   Integral package                     .... SHARK and LIBINT hybrid scheme
 Reset frequency        DirectResetFreq ....    20
 Integral Threshold     Thresh          ....  2.500e-11 Eh
 Primitive CutOff       TCut            ....  2.500e-12 Eh

Convergence Tolerance:
 Convergence Check Mode ConvCheckMode   .... Total+1el-Energy
 Convergence forced     ConvForced      .... 1
 Energy Change          TolE            ....  1.000e-08 Eh
 1-El. energy change                    ....  1.000e-05 Eh
 Orbital Gradient       TolG            ....  1.000e-05
 Orbital Rotation angle TolX            ....  1.000e-05
 DIIS Error             TolErr          ....  5.000e-07

------------------------------
INITIAL GUESS: MODEL POTENTIAL
------------------------------
Loading Hartree-Fock densities                     ... done
Calculating cut-offs                               ... done
Initializing the effective Hamiltonian             ... done
Setting up the integral package (SHARK)            ... done
Starting the Coulomb interaction                   ... done (   1.4 sec)
Making the grid                                    ... done (   0.8 sec)
Mapping shells                                     ... done
Starting the XC term evaluation                    ... done (   0.7 sec)
  promolecular density results
     # of electrons  =    139.986789011
     EX              =   -116.097084204
     EC              =     -4.791544479
     EX+EC           =   -120.888628684
Transforming the Hamiltonian                       ... done (   0.0 sec)
Diagonalizing the Hamiltonian                      ... done (   0.0 sec)
Back transforming the eigenvectors                 ... done (   0.0 sec)
Now organizing SCF variables                       ... done
                      ------------------
                      INITIAL GUESS DONE (   3.2 sec)
                      ------------------
             **** ENERGY FILE WAS UPDATED (5higherenergy.en.tmp) ****
Finished Guess after   3.9 sec
Maximum memory used throughout the entire GUESS-calculation: 47.6 MB

-------------------------------------------------------------------------------------------
                                      ORCA LEAN-SCF
                              memory conserving SCF solver
-------------------------------------------------------------------------------------------

--------------------
CPCM SOLVATION MODEL
--------------------
CPCM parameters:
  Epsilon                                         ...      80.1510
  Refrac                                          ...       1.3328
  Rsolv                                           ...       1.3000
  Surface type                                    ... GAUSSIAN VDW
  Discretization scheme                           ... Constant charge density
    Threshold for H atoms                         ...       5.0000 (charges/Ang^2)
    Threshold for non-H atoms                     ...       5.0000 (charges/Ang^2)
  Epsilon function type                           ...         CPCM
Solvent:                                          ... WATER
Radii:
  Scheme                                          ... Element-dependent radii
  Radius for C  used is    3.8550 Bohr (=   2.0400 Ang.)
  Radius for O  used is    3.4469 Bohr (=   1.8240 Ang.)
  Radius for N  used is    3.5149 Bohr (=   1.8600 Ang.)
  Radius for H  used is    2.4944 Bohr (=   1.3200 Ang.)
Calculating surface                               ...        done! (  0.0s)
Cavity surface points                             ...         3001
Cavity Volume                                     ...    2099.2014
Cavity Surface-area                               ...    1062.8511
Calculating surface distance matrix               ...        done! (  0.1s)
Performing Cholesky decomposition & store         ...        done! (  1.4s)
Overall time for CPCM initialization              ...                 1.5s

----------------------------------------D-I-I-S--------------------------------------------
Iteration    Energy (Eh)           Delta-E    RMSDP     MaxDP     DIISErr   Damp  Time(sec)
-------------------------------------------------------------------------------------------
               ***  Starting incremental Fock matrix formation  ***
    1    -877.8305161937653338     0.00e+00  1.94e-03  7.58e-02  3.51e-01  0.700  31.6
    2    -878.0531092932062620    -2.23e-01  1.45e-03  4.80e-02  1.34e-01  0.700  16.3
                               ***Turning on AO-DIIS***
    3    -878.1449539091734096    -9.18e-02  6.44e-04  1.91e-02  4.10e-02  0.700  16.6
    4    -878.2002014216789121    -5.52e-02  1.01e-03  2.64e-02  2.11e-02  0.000  15.2
    5    -878.3199529714790970    -1.20e-01  2.37e-04  6.21e-03  5.15e-03  0.000  15.5
                              *** Initializing SOSCF ***
---------------------------------------S-O-S-C-F--------------------------------------
Iteration    Energy (Eh)           Delta-E    RMSDP     MaxDP     MaxGrad    Time(sec)
--------------------------------------------------------------------------------------
    6    -878.3205390744253691    -5.86e-04  6.60e-05  1.65e-03  1.90e-03    14.3
               *** Restarting incremental Fock matrix formation ***
    7    -878.3205878408000444    -4.88e-05  3.93e-05  1.55e-03  3.69e-04    30.8
    8    -878.3205769998246524     1.08e-05  1.93e-05  9.86e-04  7.02e-04    20.3
    9    -878.3205955779887972    -1.86e-05  3.07e-06  1.05e-04  2.39e-05    18.3
   10    -878.3205955105715930     6.74e-08  1.67e-06  7.00e-05  3.89e-05    15.6
   11    -878.3205956375616097    -1.27e-07  5.29e-07  2.02e-05  4.20e-06    14.1
   12    -878.3205956278336544     9.73e-09  2.73e-07  1.28e-05  5.66e-06    12.3
                 **** Energy Check signals convergence ****

               *****************************************************
               *                     SUCCESS                       *
               *           SCF CONVERGED AFTER  12 CYCLES          *
               *****************************************************

Recomputing exchange energy using gridx3       ... done (   47.004 sec)
Old exchange energy                            :    -23.582592838 Eh
New exchange energy                            :    -23.582623239 Eh
Exchange energy change after final integration :     -0.000030401 Eh
Total energy after final integration           :   -878.320626029 Eh
             **** ENERGY FILE WAS UPDATED (5higherenergy.en.tmp) ****

----------------
TOTAL SCF ENERGY
----------------

Total Energy       :       -878.32062602868564 Eh          -23900.31930 eV

Components:
Nuclear Repulsion  :       1503.87611770531635 Eh           40922.54962 eV
Electronic Energy  :      -2382.17555845374409 Eh          -64822.29245 eV
One Electron Energy:      -4180.77761450415528 Eh         -113764.74258 eV
Two Electron Energy:       1798.60205605041097 Eh           48942.45013 eV
CPCM Dielectric    :         -0.02115487940611 Eh              -0.57565 eV

Virial components:
Potential Energy   :      -1753.87560989113854 Eh          -47725.38166 eV
Kinetic Energy     :        875.55498386245301 Eh           23825.06235 eV
Virial Ratio       :          2.00315873042494

DFT components:
N(Alpha)           :       70.000042134583 electrons
N(Beta)            :       70.000042134583 electrons
N(Total)           :      140.000084269166 electrons
E(X)               :      -93.740388713547 Eh       
E(C)               :       -6.163602121946 Eh       
E(XC)              :      -99.903990835493 Eh       

CPCM Solvation Model Properties:
Surface-charge          :         -0.02783118106783
Corrected charge        :          0.00000000000000
Outlying charge corr.   :          0.00004352581512 Eh               0.00118 eV
Free-energy (cav+disp)  :  This term is not implemented in the current solvation scheme

---------------
SCF CONVERGENCE
---------------

  Last Energy change         ...   -9.7280e-09  Tolerance :   1.0000e-08
  Last MAX-Density change    ...    1.2838e-05  Tolerance :   1.0000e-07
  Last RMS-Density change    ...    2.7300e-07  Tolerance :   5.0000e-09
  Last DIIS Error            ...    1.9050e-03  Tolerance :   5.0000e-07
  Last Orbital Gradient      ...    5.6588e-06  Tolerance :   1.0000e-05
  Last Orbital Rotation      ...    9.4332e-06  Tolerance :   1.0000e-05


----------------
ORBITAL ENERGIES
----------------

  NO   OCC          E(Eh)            E(eV) 
   0   2.0000     -19.167484      -521.5738 
   1   2.0000     -19.086031      -519.3573 
   2   2.0000     -14.342924      -390.2908 
   3   2.0000     -14.305831      -389.2814 
   4   2.0000     -10.315691      -280.7042 
   5   2.0000     -10.246033      -278.8087 
   6   2.0000     -10.219929      -278.0984 
   7   2.0000     -10.206919      -277.7444 
   8   2.0000     -10.194655      -277.4107 
   9   2.0000     -10.193744      -277.3859 
  10   2.0000     -10.193007      -277.3658 
  11   2.0000     -10.192312      -277.3469 
  12   2.0000     -10.190426      -277.2956 
  13   2.0000     -10.189921      -277.2819 
  14   2.0000     -10.180347      -277.0213 
  15   2.0000     -10.180208      -277.0175 
  16   2.0000     -10.179598      -277.0009 
  17   2.0000     -10.179470      -276.9975 
  18   2.0000     -10.177821      -276.9526 
  19   2.0000     -10.175733      -276.8958 
  20   2.0000      -1.121722       -30.5236 
  21   2.0000      -1.023106       -27.8401 
  22   2.0000      -0.959943       -26.1214 
  23   2.0000      -0.948925       -25.8216 
  24   2.0000      -0.884928       -24.0801 
  25   2.0000      -0.841499       -22.8984 
  26   2.0000      -0.809465       -22.0267 
  27   2.0000      -0.787114       -21.4185 
  28   2.0000      -0.753992       -20.5172 
  29   2.0000      -0.745155       -20.2767 
  30   2.0000      -0.724321       -19.7098 
  31   2.0000      -0.707850       -19.2616 
  32   2.0000      -0.656357       -17.8604 
  33   2.0000      -0.650518       -17.7015 
  34   2.0000      -0.641374       -17.4527 
  35   2.0000      -0.615879       -16.7589 
  36   2.0000      -0.580305       -15.7909 
  37   2.0000      -0.546587       -14.8734 
  38   2.0000      -0.536852       -14.6085 
  39   2.0000      -0.529433       -14.4066 
  40   2.0000      -0.520557       -14.1651 
  41   2.0000      -0.496728       -13.5167 
  42   2.0000      -0.492421       -13.3995 
  43   2.0000      -0.485048       -13.1988 
  44   2.0000      -0.479223       -13.0403 
  45   2.0000      -0.466283       -12.6882 
  46   2.0000      -0.446370       -12.1463 
  47   2.0000      -0.445829       -12.1316 
  48   2.0000      -0.439057       -11.9473 
  49   2.0000      -0.429838       -11.6965 
  50   2.0000      -0.422683       -11.5018 
  51   2.0000      -0.412441       -11.2231 
  52   2.0000      -0.408616       -11.1190 
  53   2.0000      -0.407493       -11.0884 
  54   2.0000      -0.406409       -11.0590 
  55   2.0000      -0.403792       -10.9877 
  56   2.0000      -0.387018       -10.5313 
  57   2.0000      -0.385094       -10.4789 
  58   2.0000      -0.371984       -10.1222 
  59   2.0000      -0.363311        -9.8862 
  60   2.0000      -0.355856        -9.6833 
  61   2.0000      -0.339405        -9.2357 
  62   2.0000      -0.322686        -8.7807 
  63   2.0000      -0.308871        -8.4048 
  64   2.0000      -0.283875        -7.7246 
  65   2.0000      -0.279662        -7.6100 
  66   2.0000      -0.253795        -6.9061 
  67   2.0000      -0.248854        -6.7717 
  68   2.0000      -0.244431        -6.6513 
  69   2.0000      -0.225718        -6.1421 
  70   0.0000      -0.058508        -1.5921 
  71   0.0000      -0.050688        -1.3793 
  72   0.0000      -0.011118        -0.3025 
  73   0.0000       0.015795         0.4298 
  74   0.0000       0.046690         1.2705 
  75   0.0000       0.048827         1.3286 
  76   0.0000       0.059130         1.6090 
  77   0.0000       0.063072         1.7163 
  78   0.0000       0.065208         1.7744 
  79   0.0000       0.079012         2.1500 
  80   0.0000       0.085942         2.3386 
*Only the first 10 virtual orbitals were printed.

                    ********************************
                    * MULLIKEN POPULATION ANALYSIS *
                    ********************************

-----------------------
MULLIKEN ATOMIC CHARGES
-----------------------
   0 C :   -0.210214
   1 C :   -0.222449
   2 C :   -0.227219
   3 C :    0.196684
   4 C :    0.010444
   5 O :   -0.341265
   6 C :    0.006362
   7 C :   -0.228766
   8 C :   -0.233234
   9 C :    0.105940
  10 C :   -0.009874
  11 N :   -0.335785
  12 C :   -0.050393
  13 C :   -0.291817
  14 C :   -0.105383
  15 C :    0.542257
  16 O :   -0.468789
  17 N :   -0.321691
  18 C :   -0.517647
  19 C :   -0.540598
  20 H :    0.259499
  21 H :    0.227547
  22 H :    0.233888
  23 H :    0.238654
  24 H :    0.229237
  25 H :    0.229255
  26 H :    0.226206
  27 H :    0.231343
  28 H :    0.226669
  29 H :    0.228762
  30 H :    0.227452
  31 H :    0.220357
  32 H :    0.228843
  33 H :    0.235724
Sum of atomic charges:   -0.0000000

--------------------------------
MULLIKEN REDUCED ORBITAL CHARGES
--------------------------------
  0 C s       :     3.156743  s :     3.156743
      pz      :     1.005502  p :     2.994552
      px      :     1.026404
      py      :     0.962646
      dz2     :     0.010341  d :     0.058919
      dxz     :     0.011863
      dyz     :     0.008234
      dx2y2   :     0.017264
      dxy     :     0.011216

  1 C s       :     3.198405  s :     3.198405
      pz      :     0.971398  p :     2.960807
      px      :     0.991784
      py      :     0.997625
      dz2     :     0.009988  d :     0.063237
      dxz     :     0.015054
      dyz     :     0.007803
      dx2y2   :     0.011088
      dxy     :     0.019304

  2 C s       :     3.188388  s :     3.188388
      pz      :     1.018359  p :     2.977453
      px      :     0.955522
      py      :     1.003573
      dz2     :     0.006602  d :     0.061377
      dxz     :     0.014353
      dyz     :     0.010260
      dx2y2   :     0.013957
      dxy     :     0.016205

  3 C s       :     3.116485  s :     3.116485
      pz      :     0.782828  p :     2.572167
      px      :     0.916508
      py      :     0.872831
      dz2     :     0.019480  d :     0.114664
      dxz     :     0.023946
      dyz     :     0.020255
      dx2y2   :     0.026621
      dxy     :     0.024361

  4 C s       :     3.047246  s :     3.047246
      pz      :     1.034917  p :     2.874123
      px      :     0.886878
      py      :     0.952328
      dz2     :     0.011070  d :     0.068188
      dxz     :     0.015333
      dyz     :     0.008728
      dx2y2   :     0.016656
      dxy     :     0.016400

  5 O s       :     3.793093  s :     3.793093
      pz      :     1.582380  p :     4.532901
      px      :     1.483015
      py      :     1.467507
      dz2     :     0.003279  d :     0.015271
      dxz     :     0.002556
      dyz     :     0.003711
      dx2y2   :     0.002717
      dxy     :     0.003008

  6 C s       :     3.090806  s :     3.090806
      pz      :     0.948467  p :     2.826614
      px      :     0.937785
      py      :     0.940362
      dz2     :     0.012503  d :     0.076217
      dxz     :     0.016866
      dyz     :     0.010189
      dx2y2   :     0.018575
      dxy     :     0.018084

  7 C s       :     3.193736  s :     3.193736
      pz      :     1.011565  p :     2.972967
      px      :     0.947433
      py      :     1.013969
      dz2     :     0.006828  d :     0.062062
      dxz     :     0.013016
      dyz     :     0.011486
      dx2y2   :     0.016530
      dxy     :     0.014203

  8 C s       :     3.201941  s :     3.201941
      pz      :     0.970790  p :     2.969294
      px      :     1.037425
      py      :     0.961079
      dz2     :     0.011000  d :     0.061999
      dxz     :     0.011117
      dyz     :     0.009712
      dx2y2   :     0.019932
      dxy     :     0.010238

  9 C s       :     3.065172  s :     3.065172
      pz      :     0.894657  p :     2.729016
      px      :     0.953858
      py      :     0.880500
      dz2     :     0.016251  d :     0.099872
      dxz     :     0.023517
      dyz     :     0.014516
      dx2y2   :     0.021902
      dxy     :     0.023686

 10 C s       :     3.071304  s :     3.071304
      pz      :     0.985046  p :     2.864577
      px      :     0.889053
      py      :     0.990478
      dz2     :     0.012868  d :     0.073994
      dxz     :     0.015368
      dyz     :     0.010578
      dx2y2   :     0.018365
      dxy     :     0.016815

 11 N s       :     3.613276  s :     3.613276
      pz      :     1.134562  p :     3.685320
      px      :     1.483028
      py      :     1.067730
      dz2     :     0.006627  d :     0.037189
      dxz     :     0.007784
      dyz     :     0.005999
      dx2y2   :     0.006622
      dxy     :     0.010158

 12 C s       :     3.134661  s :     3.134661
      pz      :     0.970435  p :     2.825457
      px      :     0.910201
      py      :     0.944821
      dz2     :     0.011261  d :     0.090275
      dxz     :     0.017725
      dyz     :     0.015386
      dx2y2   :     0.024595
      dxy     :     0.021308

 13 C s       :     3.233134  s :     3.233134
      pz      :     0.986573  p :     2.999172
      px      :     0.990853
      py      :     1.021745
      dz2     :     0.008866  d :     0.059512
      dxz     :     0.013942
      dyz     :     0.008251
      dx2y2   :     0.011774
      dxy     :     0.016679

 14 C s       :     3.157649  s :     3.157649
      pz      :     0.951013  p :     2.885401
      px      :     0.993661
      py      :     0.940728
      dz2     :     0.011364  d :     0.062333
      dxz     :     0.012212
      dyz     :     0.009025
      dx2y2   :     0.018780
      dxy     :     0.010952

 15 C s       :     2.903272  s :     2.903272
      pz      :     0.774808  p :     2.323904
      px      :     0.749385
      py      :     0.799712
      dz2     :     0.058875  d :     0.230566
      dxz     :     0.045836
      dyz     :     0.055281
      dx2y2   :     0.036475
      dxy     :     0.034100

 16 O s       :     3.826640  s :     3.826640
      pz      :     1.411884  p :     4.626153
      px      :     1.560192
      py      :     1.654076
      dz2     :     0.005353  d :     0.015996
      dxz     :     0.005675
      dyz     :     0.002852
      dx2y2   :     0.001159
      dxy     :     0.000957

 17 N s       :     3.464518  s :     3.464518
      pz      :     1.163717  p :     3.821853
      px      :     1.294984
      py      :     1.363152
      dz2     :     0.007838  d :     0.035320
      dxz     :     0.008015
      dyz     :     0.008534
      dx2y2   :     0.005838
      dxy     :     0.005094

 18 C s       :     3.314549  s :     3.314549
      pz      :     1.169001  p :     3.132359
      px      :     0.931396
      py      :     1.031961
      dz2     :     0.012781  d :     0.070739
      dxz     :     0.004571
      dyz     :     0.018324
      dx2y2   :     0.015028
      dxy     :     0.020035

 19 C s       :     3.325154  s :     3.325154
      pz      :     0.888747  p :     3.144183
      px      :     1.090272
      py      :     1.165165
      dz2     :     0.017754  d :     0.071261
      dxz     :     0.018083
      dyz     :     0.013701
      dx2y2   :     0.011861
      dxy     :     0.009862

 20 H s       :     0.740501  s :     0.740501

 21 H s       :     0.772453  s :     0.772453

 22 H s       :     0.766112  s :     0.766112

 23 H s       :     0.761346  s :     0.761346

 24 H s       :     0.770763  s :     0.770763

 25 H s       :     0.770745  s :     0.770745

 26 H s       :     0.773794  s :     0.773794

 27 H s       :     0.768657  s :     0.768657

 28 H s       :     0.773331  s :     0.773331

 29 H s       :     0.771238  s :     0.771238

 30 H s       :     0.772548  s :     0.772548

 31 H s       :     0.779643  s :     0.779643

 32 H s       :     0.771157  s :     0.771157

 33 H s       :     0.764276  s :     0.764276



                     *******************************
                     * LOEWDIN POPULATION ANALYSIS *
                     *******************************

----------------------
LOEWDIN ATOMIC CHARGES
----------------------
   0 C :   -0.116756
   1 C :   -0.104640
   2 C :   -0.104247
   3 C :   -0.006687
   4 C :   -0.038728
   5 O :    0.081377
   6 C :   -0.032974
   7 C :   -0.092632
   8 C :   -0.098528
   9 C :   -0.037170
  10 C :   -0.050432
  11 N :   -0.002907
  12 C :   -0.105457
  13 C :   -0.129184
  14 C :   -0.061899
  15 C :   -0.123377
  16 O :   -0.196849
  17 N :    0.042247
  18 C :   -0.237223
  19 C :   -0.249736
  20 H :    0.117942
  21 H :    0.109188
  22 H :    0.115048
  23 H :    0.121841
  24 H :    0.111449
  25 H :    0.111852
  26 H :    0.122552
  27 H :    0.122057
  28 H :    0.123564
  29 H :    0.124808
  30 H :    0.124201
  31 H :    0.107375
  32 H :    0.126233
  33 H :    0.127690

-------------------------------
LOEWDIN REDUCED ORBITAL CHARGES
-------------------------------
  0 C s       :     2.830807  s :     2.830807
      pz      :     1.039353  p :     3.154935
      px      :     1.068673
      py      :     1.046908
      dz2     :     0.021552  d :     0.131014
      dxz     :     0.025129
      dyz     :     0.022147
      dx2y2   :     0.033980
      dxy     :     0.028206

  1 C s       :     2.826947  s :     2.826947
      pz      :     1.020858  p :     3.140181
      px      :     1.093675
      py      :     1.025648
      dz2     :     0.021250  d :     0.137512
      dxz     :     0.032656
      dyz     :     0.017236
      dx2y2   :     0.028003
      dxy     :     0.038366

  2 C s       :     2.825971  s :     2.825971
      pz      :     1.022792  p :     3.144545
      px      :     1.091760
      py      :     1.029993
      dz2     :     0.013995  d :     0.133731
      dxz     :     0.031990
      dyz     :     0.017314
      dx2y2   :     0.033664
      dxy     :     0.036768

  3 C s       :     2.787112  s :     2.787112
      pz      :     0.934441  p :     2.967406
      px      :     1.075298
      py      :     0.957667
      dz2     :     0.041138  d :     0.252169
      dxz     :     0.052858
      dyz     :     0.048332
      dx2y2   :     0.058579
      dxy     :     0.051262

  4 C s       :     2.784140  s :     2.784140
      pz      :     1.019989  p :     3.093963
      px      :     1.047773
      py      :     1.026201
      dz2     :     0.024046  d :     0.160624
      dxz     :     0.035512
      dyz     :     0.021641
      dx2y2   :     0.040453
      dxy     :     0.038972

  5 O s       :     3.360226  s :     3.360226
      pz      :     1.574984  p :     4.532928
      px      :     1.498254
      py      :     1.459689
      dz2     :     0.005126  d :     0.025470
      dxz     :     0.003897
      dyz     :     0.005922
      dx2y2   :     0.004322
      dxy     :     0.006203

  6 C s       :     2.778513  s :     2.778513
      pz      :     1.001045  p :     3.080668
      px      :     1.061826
      py      :     1.017798
      dz2     :     0.026813  d :     0.173793
      dxz     :     0.038167
      dyz     :     0.024604
      dx2y2   :     0.042693
      dxy     :     0.041516

  7 C s       :     2.827528  s :     2.827528
      pz      :     1.016682  p :     3.130556
      px      :     1.073388
      py      :     1.040486
      dz2     :     0.014220  d :     0.134548
      dxz     :     0.029262
      dyz     :     0.019841
      dx2y2   :     0.037645
      dxy     :     0.033581

  8 C s       :     2.827152  s :     2.827152
      pz      :     1.018824  p :     3.136335
      px      :     1.076410
      py      :     1.041101
      dz2     :     0.022751  d :     0.135041
      dxz     :     0.023408
      dyz     :     0.023861
      dx2y2   :     0.038978
      dxy     :     0.026042

  9 C s       :     2.782580  s :     2.782580
      pz      :     0.982768  p :     3.027416
      px      :     1.057458
      py      :     0.987190
      dz2     :     0.033434  d :     0.227174
      dxz     :     0.054837
      dyz     :     0.034993
      dx2y2   :     0.048738
      dxy     :     0.055172

 10 C s       :     2.783263  s :     2.783263
      pz      :     1.005391  p :     3.095569
      px      :     1.071036
      py      :     1.019142
      dz2     :     0.027269  d :     0.171600
      dxz     :     0.036386
      dyz     :     0.024821
      dx2y2   :     0.042864
      dxy     :     0.040261

 11 N s       :     3.134151  s :     3.134151
      pz      :     1.160237  p :     3.799813
      px      :     1.509350
[...]
 50:    971.70   0.014511   73.33  0.004660  (-0.056779  0.037597  0.004763)
 51:    987.44   0.010270   51.90  0.003246  ( 0.040678 -0.036675 -0.015683)
 52:   1018.82   0.037245  188.22  0.011408  (-0.060696  0.079054  0.038400)
 53:   1073.34   0.007800   39.42  0.002268  (-0.046185 -0.003397 -0.011091)
 54:   1083.59   0.040930  206.84  0.011787  ( 0.049724 -0.082650 -0.049839)
 55:   1083.98   0.006417   32.43  0.001847  (-0.000877 -0.028958 -0.031749)
 56:   1108.27   0.037995  192.01  0.010699  ( 0.092350 -0.033094 -0.032783)
 57:   1118.56   0.175661  887.72  0.049007  (-0.142476  0.124946  0.114437)
 58:   1130.69   0.000218    1.10  0.000060  (-0.003302  0.003016 -0.006343)
 59:   1140.14   0.000301    1.52  0.000082  (-0.003666  0.004767 -0.006805)
 60:   1173.22   0.003411   17.24  0.000907  ( 0.021259 -0.015135 -0.015046)
 61:   1186.09   0.002071   10.47  0.000545  (-0.021816  0.007500 -0.003580)
 62:   1196.67   0.024330  122.96  0.006345  ( 0.067317 -0.031425 -0.028734)
 63:   1204.20   0.006794   34.33  0.001761  ( 0.004746 -0.037414 -0.018394)
 64:   1254.15   0.001849    9.34  0.000460  ( 0.011329 -0.014793 -0.010625)
 65:   1257.19   0.031782  160.62  0.007889  (-0.073087  0.046906  0.018638)
 66:   1276.32   0.002439   12.33  0.000596  ( 0.003513 -0.024028 -0.002579)
 67:   1283.58   0.005846   29.54  0.001421  ( 0.016584 -0.023171 -0.024685)
 68:   1326.66   0.014290   72.21  0.003361  (-0.035173  0.036837  0.027698)
 69:   1363.22   0.005997   30.31  0.001373  ( 0.031975  0.016331  0.009150)
 70:   1377.68   0.003900   19.71  0.000883  ( 0.029464  0.001362  0.003669)
 71:   1406.52   0.015783   79.76  0.003502  ( 0.038780 -0.035216 -0.027527)
 72:   1413.74   0.037690  190.47  0.008320  ( 0.069983 -0.044627 -0.037820)
 73:   1426.80   0.002220   11.22  0.000486  ( 0.010920  0.012948  0.014094)
 74:   1446.48   0.001063    5.37  0.000229  ( 0.014364  0.001522 -0.004551)
 75:   1450.37   0.003510   17.74  0.000755  (-0.010143  0.003825 -0.025254)
 76:   1460.05   0.011251   56.86  0.002405  (-0.035165  0.026921  0.021057)
 77:   1473.05   0.003557   17.98  0.000754  ( 0.016651 -0.013507  0.017144)
 78:   1490.40   0.000027    0.14  0.000006  ( 0.001032  0.000219  0.002122)
 79:   1500.21   0.006913   34.94  0.001438  (-0.026838 -0.026752 -0.001454)
 80:   1504.19   0.002425   12.26  0.000503  ( 0.009137 -0.001306  0.020443)
 81:   1504.78   0.004055   20.49  0.000841  (-0.022791  0.013698 -0.011569)
 82:   1512.11   0.000974    4.92  0.000201  (-0.011144 -0.008769  0.000061)
 83:   1535.57   0.019266   97.36  0.003915  (-0.049015  0.037290  0.011057)
 84:   1546.42   0.001933    9.77  0.000390  (-0.006380  0.016474  0.008832)
 85:   1554.75   0.004151   20.98  0.000833  ( 0.027457  0.008192  0.003494)
 86:   1565.55   0.005581   28.21  0.001113  (-0.002008 -0.022490 -0.024550)
 87:   1768.78   0.182831  923.95  0.032257  (-0.022745 -0.016197 -0.177417)
 88:   3028.13   0.007610   38.46  0.000784  (-0.012192  0.015038 -0.020236)
 89:   3034.30   0.023740  119.97  0.002442  ( 0.030404 -0.008347 -0.038046)
 90:   3094.37   0.012465   62.99  0.001257  ( 0.017049  0.031044  0.001651)
 91:   3101.42   0.006159   31.13  0.000620  (-0.010588 -0.021481 -0.006799)
 92:   3144.52   0.006640   33.56  0.000659  ( 0.004541 -0.021920 -0.012565)
 93:   3176.80   0.001423    7.19  0.000140  (-0.003222  0.001170 -0.011317)
 94:   3180.37   0.001140    5.76  0.000112  (-0.010570 -0.000003  0.000386)
 95:   3186.03   0.006988   35.31  0.000684  (-0.011370  0.019709  0.012913)
 96:   3191.01   0.000257    1.30  0.000025  ( 0.004702 -0.000807 -0.001546)
 97:   3191.96   0.002718   13.74  0.000266  ( 0.014577 -0.006410 -0.003491)
 98:   3197.24   0.008929   45.13  0.000872  ( 0.027556  0.008987  0.005609)
 99:   3200.91   0.000777    3.93  0.000076  ( 0.001341 -0.007642 -0.003942)
100:   3208.61   0.010966   55.42  0.001067  ( 0.002071  0.026144  0.019460)
101:   3229.57   0.001752    8.85  0.000169  (-0.012797 -0.000312  0.002329)

* The epsilon (eps) is given for a Dirac delta lineshape.
** The dipole moment derivative (T) already includes vibrational overlap.

The first frequency considered to be a vibration is 7
The total number of vibrations considered is 95


--------------------------
THERMOCHEMISTRY AT 298.15K
--------------------------

Temperature         ...   298.15 K
Pressure            ...     1.00 atm
Total Mass          ...   266.30 AMU
Quasi RRHO          ...     True
Cut-Off Frequency   ...     1.00 cm^-1

Throughout the following assumptions are being made:
  (1) The electronic state is orbitally nondegenerate
  (2) There are no thermally accessible electronically excited states
  (3) Hindered rotations indicated by low frequency modes are not
      treated as such but are treated as vibrations and this may
      cause some error
  (4) All equations used are the standard statistical mechanics
      equations for an ideal gas
  (5) All vibrations are strictly harmonic

freq.      10.95  E(vib)   ...       0.58 
freq.      38.66  E(vib)   ...       0.54 
freq.      83.00  E(vib)   ...       0.48 
freq.      90.65  E(vib)   ...       0.47 
freq.      99.23  E(vib)   ...       0.46 
freq.     105.66  E(vib)   ...       0.45 
freq.     141.98  E(vib)   ...       0.41 
freq.     182.29  E(vib)   ...       0.37 
freq.     202.10  E(vib)   ...       0.35 
freq.     215.07  E(vib)   ...       0.34 
freq.     231.84  E(vib)   ...       0.32 
freq.     242.72  E(vib)   ...       0.31 
freq.     257.39  E(vib)   ...       0.30 
freq.     339.32  E(vib)   ...       0.23 
freq.     357.42  E(vib)   ...       0.22 
freq.     381.31  E(vib)   ...       0.21 
freq.     400.77  E(vib)   ...       0.19 
freq.     441.86  E(vib)   ...       0.17 
freq.     456.96  E(vib)   ...       0.16 
freq.     469.11  E(vib)   ...       0.16 
freq.     490.59  E(vib)   ...       0.15 
freq.     501.63  E(vib)   ...       0.14 
freq.     520.56  E(vib)   ...       0.13 
freq.     534.90  E(vib)   ...       0.13 
freq.     580.56  E(vib)   ...       0.11 
freq.     599.24  E(vib)   ...       0.10 
freq.     624.12  E(vib)   ...       0.09 
freq.     658.57  E(vib)   ...       0.08 
freq.     684.20  E(vib)   ...       0.07 
freq.     692.31  E(vib)   ...       0.07 
freq.     703.32  E(vib)   ...       0.07 
freq.     739.52  E(vib)   ...       0.06 
freq.     741.50  E(vib)   ...       0.06 
freq.     775.40  E(vib)   ...       0.05 
freq.     806.64  E(vib)   ...       0.05 
freq.     812.48  E(vib)   ...       0.05 
freq.     821.14  E(vib)   ...       0.05 
freq.     830.06  E(vib)   ...       0.04 
freq.     842.71  E(vib)   ...       0.04 
freq.     882.65  E(vib)   ...       0.04 
freq.     911.75  E(vib)   ...       0.03 
freq.     926.38  E(vib)   ...       0.03 
freq.     942.46  E(vib)   ...       0.03 
freq.     971.70  E(vib)   ...       0.03 
freq.     987.44  E(vib)   ...       0.02 
freq.    1018.82  E(vib)   ...       0.02 
freq.    1073.34  E(vib)   ...       0.02 
freq.    1083.59  E(vib)   ...       0.02 
freq.    1083.98  E(vib)   ...       0.02 
freq.    1108.27  E(vib)   ...       0.02 
freq.    1118.56  E(vib)   ...       0.01 
freq.    1130.69  E(vib)   ...       0.01 
freq.    1140.14  E(vib)   ...       0.01 
freq.    1173.22  E(vib)   ...       0.01 
freq.    1186.09  E(vib)   ...       0.01 
freq.    1196.67  E(vib)   ...       0.01 
freq.    1204.20  E(vib)   ...       0.01 
freq.    1254.15  E(vib)   ...       0.01 
freq.    1257.19  E(vib)   ...       0.01 
freq.    1276.32  E(vib)   ...       0.01 
freq.    1283.58  E(vib)   ...       0.01 
freq.    1326.66  E(vib)   ...       0.01 
freq.    1363.22  E(vib)   ...       0.01 
freq.    1377.68  E(vib)   ...       0.01 
freq.    1406.52  E(vib)   ...       0.00 
freq.    1413.74  E(vib)   ...       0.00 
freq.    1426.80  E(vib)   ...       0.00 
freq.    1446.48  E(vib)   ...       0.00 
freq.    1450.37  E(vib)   ...       0.00 
freq.    1460.05  E(vib)   ...       0.00 
freq.    1473.05  E(vib)   ...       0.00 
freq.    1490.40  E(vib)   ...       0.00 
freq.    1500.21  E(vib)   ...       0.00 
freq.    1504.19  E(vib)   ...       0.00 
freq.    1504.78  E(vib)   ...       0.00 
freq.    1512.11  E(vib)   ...       0.00 
freq.    1535.57  E(vib)   ...       0.00 
freq.    1546.42  E(vib)   ...       0.00 
freq.    1554.75  E(vib)   ...       0.00 
freq.    1565.55  E(vib)   ...       0.00 
freq.    1768.78  E(vib)   ...       0.00 
freq.    3028.13  E(vib)   ...       0.00 
freq.    3034.30  E(vib)   ...       0.00 
freq.    3094.37  E(vib)   ...       0.00 
freq.    3101.42  E(vib)   ...       0.00 
freq.    3144.52  E(vib)   ...       0.00 
freq.    3176.80  E(vib)   ...       0.00 
freq.    3180.37  E(vib)   ...       0.00 
freq.    3186.03  E(vib)   ...       0.00 
freq.    3191.01  E(vib)   ...       0.00 
freq.    3191.96  E(vib)   ...       0.00 
freq.    3197.24  E(vib)   ...       0.00 
freq.    3200.91  E(vib)   ...       0.00 
freq.    3208.61  E(vib)   ...       0.00 
freq.    3229.57  E(vib)   ...       0.00 

------------
INNER ENERGY
------------

The inner energy is: U= E(el) + E(ZPE) + E(vib) + E(rot) + E(trans)
    E(el)   - is the total energy from the electronic structure calculation
              = E(kin-el) + E(nuc-el) + E(el-el) + E(nuc-nuc)
    E(ZPE)  - the the zero temperature vibrational energy from the frequency calculation
    E(vib)  - the the finite temperature correction to E(ZPE) due to population
              of excited vibrational states
    E(rot)  - is the rotational thermal energy
    E(trans)- is the translational thermal energy

Summary of contributions to the inner energy U:
Electronic energy                ...   -878.19014511 Eh
Zero point energy                ...      0.26361018 Eh     165.42 kcal/mol
Thermal vibrational correction   ...      0.01390935 Eh       8.73 kcal/mol
Thermal rotational correction    ...      0.00141627 Eh       0.89 kcal/mol
Thermal translational correction ...      0.00141627 Eh       0.89 kcal/mol
-----------------------------------------------------------------------
Total thermal energy                   -877.90979303 Eh


Summary of corrections to the electronic energy:
(perhaps to be used in another calculation)
Total thermal correction                  0.01674190 Eh      10.51 kcal/mol
Non-thermal (ZPE) correction              0.26361018 Eh     165.42 kcal/mol
-----------------------------------------------------------------------
Total correction                          0.28035207 Eh     175.92 kcal/mol


--------
ENTHALPY
--------

The enthalpy is H = U + kB*T
                kB is Boltzmann's constant
Total thermal energy              ...   -877.90979303 Eh 
Thermal Enthalpy correction       ...      0.00094421 Eh       0.59 kcal/mol
-----------------------------------------------------------------------
Total Enthalpy                    ...   -877.90884882 Eh


Note: Only C1 symmetry has been detected, increase convergence thresholds 
      if your molecule has a higher symmetry. Symmetry factor of 1.0 is   
      used for the rotational entropy correction. 
 

Note: Rotational entropy computed according to Herzberg 
Infrared and Raman Spectra, Chapter V,1, Van Nostrand Reinhold, 1945 
Point Group:  C1, Symmetry Number:   1  
Rotational constants in cm-1:     0.016828     0.009553     0.006447 

Vibrational entropy computed according to the QRRHO of S. Grimme
Chem.Eur.J. 2012 18 9955 using a reference frequency of 100.0 cm-1


-------
ENTROPY
-------

The entropy contributions are T*S = T*(S(el)+S(vib)+S(rot)+S(trans))
     S(el)   - electronic entropy
     S(vib)  - vibrational entropy
     S(rot)  - rotational entropy
     S(trans)- translational entropy
The entropies will be listed as multiplied by the temperature to get
units of energy

Electronic entropy                ...      0.00000000 Eh      0.00 kcal/mol
Vibrational entropy               ...      0.02449176 Eh     15.37 kcal/mol
Rotational entropy                ...      0.01601606 Eh     10.05 kcal/mol
Translational entropy             ...      0.02025841 Eh     12.71 kcal/mol
-----------------------------------------------------------------------
Final entropy term                ...      0.06076623 Eh     38.13 kcal/mol

In case the symmetry of your molecule has not been determined correctly
or in case you have a reason to use a different symmetry number we print 
out the resulting rotational entropy values for sn=1,12:

 non-linear molecules -----------------------------------
|  sn= 1 | S(rot)=       0.01601606 Eh     10.05 kcal/mol|
|  sn= 2 | S(rot)=       0.01536160 Eh      9.64 kcal/mol|
|  sn= 3 | S(rot)=       0.01497877 Eh      9.40 kcal/mol|
|  sn= 4 | S(rot)=       0.01470714 Eh      9.23 kcal/mol|
|  sn= 5 | S(rot)=       0.01449646 Eh      9.10 kcal/mol|
|  sn= 6 | S(rot)=       0.01432431 Eh      8.99 kcal/mol|
|  sn= 7 | S(rot)=       0.01417877 Eh      8.90 kcal/mol|
|  sn= 8 | S(rot)=       0.01405269 Eh      8.82 kcal/mol|
|  sn= 9 | S(rot)=       0.01394148 Eh      8.75 kcal/mol|
|  sn=10 | S(rot)=       0.01384200 Eh      8.69 kcal/mol|
|  sn=11 | S(rot)=       0.01375201 Eh      8.63 kcal/mol|
|  sn=12 | S(rot)=       0.01366986 Eh      8.58 kcal/mol|
 linear molecules ---------------------------------------
|  Dinfh | S(rot)=       0.01008834 Eh      6.33 kcal/mol|
|  Cinfv | S(rot)=       0.01074280 Eh      6.74 kcal/mol|
 --------------------------------------------------------


-------------------
GIBBS FREE ENERGY
-------------------

The Gibbs free energy is G = H - T*S

Total enthalpy                    ...   -877.90884882 Eh 
Total entropy correction          ...     -0.06076623 Eh    -38.13 kcal/mol
-----------------------------------------------------------------------
Final Gibbs free energy         ...   -877.96961506 Eh

For completeness - the Gibbs free energy minus the electronic energy
G-E(el)                           ...      0.22053005 Eh    138.38 kcal/mol



--------------------------------
SUGGESTED CITATIONS FOR THIS RUN
--------------------------------

Below you find a list of papers that are relevant to this ORCA run
We neither can nor want to force you to cite these papers, but we appreciate if you do
You receive ORCA, which is the product of decades of hard work by many enthusiastic individuals, for free
The only thing we kindly ask in return is that you cite our papers,
We deeply appreciate it, if you show your appreciation for ORCA by not just citing the generic ORCA reference.

Please note that relegating all ORCA citations to the supporting information does *not* help us.
SI sections are not indexed - citations you put there will not count into any citation statistics
But we need these citations in order to attract the funding resources that allow us to do what we are doing

Therefore, if you are a happy ORCA user, please consider citing a few of the papers listed below in the main body of your paper

In addition to the list printed below, the program has created the file 5higherenergy.bibtex that contains the list in bibtex format
You can import this file easily into all common literature databanks and citation aid programs


List of essential papers. We consider these as the minimum necessary citations

  1. Neese,F.
     Software update: the ORCA program system, version 5.0
     WIRES Comput. Molec. Sci., 2022 12(1)e1606
     doi.org/10.1002/wcms.1606

List of papers to cite with high priority. The work reported in these papers was absolutely
necessary for this run to complete.
Our perspective: the developers of density functionals and basis sets usually get cited in chemistry papers
Good! But without the algorithms to do something with them, the functionals or basis sets would not do anything.
Hence, in our opinion, the algorithm design and method developments papers are equally worthy of getting cited

  1. Neese,F.; Olbrich,G.
     Efficient use of the resolution of the identity approximation in time-dependent density functional calculations with hybrid density functionals
     Chem. Phys. Lett., 2002 362 170-178
     doi.org/10.1016/s0009-2614(02)01053-9
  2. Neese,F.
     An improvement of the resolution of the identity approximation for the formation of the Coulomb matrix
     J. Comp. Chem., 2003 24(14)1740-1747
     doi.org/10.1002/jcc.10318
  3. Neese,F.; Wennmohs,F.; Hansen,A.; Becker,U.
     Efficient, approximate and parallel Hartree-Fock and hybrid DFT calculations. A 'chain-of-spheres' algorithm for the Hartree-Fock exchange
     Chem. Phys., 2009 356(1-3)98-109
     doi.org/10.1016/j.chemphys.2008.10.036
  4. Petrenko,T.; Kossmann,S.; Neese,F.
     Efficient time-dependent density functional theory approximations for hybrid density functionals: Analytical gradients and parallelization
     J. Chem. Phys., 2011 134 054116
     doi.org/10.1063/1.3533441
  5. Bykov,D.; Petrenko,T.; Izsak,R.; Kossmann,S.; Becker,U.; Valeev,E.; Neese,F.
     Efficient implementation of the analytic second derivatives of Hartree-Fock and hybrid DFT energies: a detailed analysis of different approximations
     Molec. Phys., 2015 113 1961-1977
     doi.org/10.1080/00268976.2015.1025114
  6. Garcia-Rates,M.; Neese,F.
     Effect of the Solute Cavity on the Solvation Energy and its Derivatives within the Framework of the Gaussian Charge Scheme
     J. Comput. Chem., 2020 41 922-939
     doi.org/10.1002/jcc.26139
  7. Helmich-Paris,B.; de Souza,B.; Neese,F.; Izsák,R.
     An improved chain of spheres for exchange algorithm
     J. Chem. Phys., 2021 155 104109
     doi.org/doi: 10.1063/5.0058766.
  8. Neese,F.
     The SHARK Integral Generation and Digestion System
     J. Comp. Chem., 2022  1-16
     doi.org/10.1002/jcc.26942

List of suggested additional citations. These are papers that are important in the 'surrounding' of 
of this run, or papers that preceded the highly important papers. If you like your results we are grateful for a citation.

  1. Izsak,R.; Neese,F.
     An overlap fitted chain of spheres exchange method
     J. Chem. Phys., 2011 135 144105
     doi.org/10.1063/1.3646921
  2. Izsak,R.; Hansen,A.; Neese,F.
     The resolution of identity and chain of spheres approximations for the LPNO-CCSD singles Fock term
     Molec. Phys., 2012 110 2413-2417
     doi.org/10.1080/00268976.2012.687466
  3. Neese,F.
     The ORCA program system
     WIRES Comput. Molec. Sci., 2012 2(1)73-78
     doi.org/10.1002/wcms.81
  4. Izsak,R.; Neese,F.; Klopper,W.
     Robust fitting techniques in the chain of spheres approximation to the Fock exchange: The role of the complementary space
     J. Chem. Phys., 2013 139 
     doi.org/10.1063/1.4819264
  5. Neese,F.
     Software update: the ORCA program system, version 4.0
     WIRES Comput. Molec. Sci., 2018 8(1)1-6
     doi.org/10.1002/wcms.1327
  6. Neese,F.; Wennmohs,F.; Becker,U.; Riplinger,C.
     The ORCA quantum chemistry program package
     J. Chem. Phys., 2020 152 Art. No. L224108
     doi.org/10.1063/5.0004608

List of optional additional citations

  1. Neese,F.
     Approximate second-order SCF convergence for spin unrestricted wavefunctions
     Chem. Phys. Lett., 2000 325(1-3)93-98
     doi.org/10.1016/s0009-2614(00)00662-x

Timings for individual modules:

Sum of individual times          ...   157481.081 sec (=2624.685 min)
Startup calculation              ...      185.361 sec (=   3.089 min)   0.1 %
SCF iterations                   ...     4953.467 sec (=  82.558 min)   3.1 %
Property integrals               ...       13.031 sec (=   0.217 min)   0.0 %
Property calculations            ...        0.485 sec (=   0.008 min)   0.0 %
CIS module                       ...    12450.157 sec (= 207.503 min)   7.9 %
Geometry relaxation              ...        0.963 sec (=   0.016 min)   0.0 %
Numerical frequency calculation  ...   139877.617 sec (=2331.294 min)  88.8 %
                             ****ORCA TERMINATED NORMALLY****
TOTAL RUN TIME: 1 days 19 hours 34 minutes 14 seconds 516 msec
