
                                 *****************
                                 * O   R   C   A *
                                 *****************

                                            #,                                       
                                            ###                                      
                                            ####                                     
                                            #####                                    
                                            ######                                   
                                           ########,                                 
                                     ,,################,,,,,                         
                               ,,#################################,,                 
                          ,,##########################################,,             
                       ,#########################################, ''#####,          
                    ,#############################################,,   '####,        
                  ,##################################################,,,,####,       
                ,###########''''           ''''###############################       
              ,#####''   ,,,,##########,,,,          '''####'''          '####       
            ,##' ,,,,###########################,,,                        '##       
           ' ,,###''''                  '''############,,,                           
         ,,##''                                '''############,,,,        ,,,,,,###''
      ,#''                                            '''#######################'''  
     '                                                          ''''####''''         
             ,#######,   #######,   ,#######,      ##                                
            ,#'     '#,  ##    ##  ,#'     '#,    #''#        ######   ,####,        
            ##       ##  ##   ,#'  ##            #'  '#       #        #'  '#        
            ##       ##  #######   ##           ,######,      #####,   #    #        
            '#,     ,#'  ##    ##  '#,     ,#' ,#      #,         ##   #,  ,#        
             '#######'   ##     ##  '#######'  #'      '#     #####' # '####'        



                  #######################################################
                  #                        -***-                        #
                  #          Department of theory and spectroscopy      #
                  #    Directorship and core code : Frank Neese         #
                  #        Max Planck Institute fuer Kohlenforschung    #
                  #                Kaiser Wilhelm Platz 1               #
                  #                 D-45470 Muelheim/Ruhr               #
                  #                      Germany                        #
                  #                                                     #
                  #                  All rights reserved                #
                  #                        -***-                        #
                  #######################################################


                         Program Version 5.0.4 -  RELEASE  -


 With contributions from (in alphabetic order):
   Daniel Aravena         : Magnetic Suceptibility
   Michael Atanasov       : Ab Initio Ligand Field Theory (pilot matlab implementation)
   Alexander A. Auer      : GIAO ZORA, VPT2 properties, NMR spectrum
   Ute Becker             : Parallelization
   Giovanni Bistoni       : ED, misc. LED, open-shell LED, HFLD
   Martin Brehm           : Molecular dynamics
   Dmytro Bykov           : SCF Hessian
   Vijay G. Chilkuri      : MRCI spin determinant printing, contributions to CSF-ICE
   Dipayan Datta          : RHF DLPNO-CCSD density
   Achintya Kumar Dutta   : EOM-CC, STEOM-CC
   Dmitry Ganyushin       : Spin-Orbit,Spin-Spin,Magnetic field MRCI
   Miquel Garcia          : C-PCM and meta-GGA Hessian, CC/C-PCM, Gaussian charge scheme
   Yang Guo               : DLPNO-NEVPT2, F12-NEVPT2, CIM, IAO-localization
   Andreas Hansen         : Spin unrestricted coupled pair/coupled cluster methods
   Benjamin Helmich-Paris : MC-RPA, TRAH-SCF, COSX integrals
   Lee Huntington         : MR-EOM, pCC
   Robert Izsak           : Overlap fitted RIJCOSX, COSX-SCS-MP3, EOM
   Marcus Kettner         : VPT2
   Christian Kollmar      : KDIIS, OOCD, Brueckner-CCSD(T), CCSD density, CASPT2, CASPT2-K
   Simone Kossmann        : Meta GGA functionals, TD-DFT gradient, OOMP2, MP2 Hessian
   Martin Krupicka        : Initial AUTO-CI
   Lucas Lang             : DCDCAS
   Marvin Lechner         : AUTO-CI (C++ implementation), FIC-MRCC
   Dagmar Lenk            : GEPOL surface, SMD
   Dimitrios Liakos       : Extrapolation schemes; Compound Job, initial MDCI parallelization
   Dimitrios Manganas     : Further ROCIS development; embedding schemes
   Dimitrios Pantazis     : SARC Basis sets
   Anastasios Papadopoulos: AUTO-CI, single reference methods and gradients
   Taras Petrenko         : DFT Hessian,TD-DFT gradient, ASA, ECA, R-Raman, ABS, FL, XAS/XES, NRVS
   Peter Pinski           : DLPNO-MP2, DLPNO-MP2 Gradient
   Christoph Reimann      : Effective Core Potentials
   Marius Retegan         : Local ZFS, SOC
   Christoph Riplinger    : Optimizer, TS searches, QM/MM, DLPNO-CCSD(T), (RO)-DLPNO pert. Triples
   Tobias Risthaus        : Range-separated hybrids, TD-DFT gradient, RPA, STAB
   Michael Roemelt        : Original ROCIS implementation
   Masaaki Saitow         : Open-shell DLPNO-CCSD energy and density
   Barbara Sandhoefer     : DKH picture change effects
   Avijit Sen             : IP-ROCIS
   Kantharuban Sivalingam : CASSCF convergence, NEVPT2, FIC-MRCI
   Bernardo de Souza      : ESD, SOC TD-DFT
   Georgi Stoychev        : AutoAux, RI-MP2 NMR, DLPNO-MP2 response
   Willem Van den Heuvel  : Paramagnetic NMR
   Boris Wezisla          : Elementary symmetry handling
   Frank Wennmohs         : Technical directorship


 We gratefully acknowledge several colleagues who have allowed us to
 interface, adapt or use parts of their codes:
   Stefan Grimme, W. Hujo, H. Kruse, P. Pracht,  : VdW corrections, initial TS optimization,
                  C. Bannwarth, S. Ehlert          DFT functionals, gCP, sTDA/sTD-DF
   Ed Valeev, F. Pavosevic, A. Kumar             : LibInt (2-el integral package), F12 methods
   Garnet Chan, S. Sharma, J. Yang, R. Olivares  : DMRG
   Ulf Ekstrom                                   : XCFun DFT Library
   Mihaly Kallay                                 : mrcc  (arbitrary order and MRCC methods)
   Jiri Pittner, Ondrej Demel                    : Mk-CCSD
   Frank Weinhold                                : gennbo (NPA and NBO analysis)
   Christopher J. Cramer and Donald G. Truhlar   : smd solvation model
   Lars Goerigk                                  : TD-DFT with DH, B97 family of functionals
   V. Asgeirsson, H. Jonsson                     : NEB implementation
   FAccTs GmbH                                   : IRC, NEB, NEB-TS, DLPNO-Multilevel, CI-OPT
                                                   MM, QMMM, 2- and 3-layer-ONIOM, Crystal-QMMM,
                                                   LR-CPCM, SF, NACMEs, symmetry and pop. for TD-DFT,
                                                   nearIR, NL-DFT gradient (VV10), updates on ESD,
                                                   ML-optimized integration grids
   S Lehtola, MJT Oliveira, MAL Marques          : LibXC Library
   Liviu Ungur et al                             : ANISO software


 Your calculation uses the libint2 library for the computation of 2-el integrals
 For citations please refer to: http://libint.valeyev.net

 Your ORCA version has been built with support for libXC version: 5.1.0
 For citations please refer to: https://tddft.org/programs/libxc/

 This ORCA versions uses:
   CBLAS   interface :  Fast vector & matrix operations
   LAPACKE interface :  Fast linear algebra routines
   SCALAPACK package :  Parallel linear algebra routines
   Shared memory     :  Shared parallel matrices
   BLAS/LAPACK       :  OpenBLAS 0.3.15  USE64BITINT DYNAMIC_ARCH NO_AFFINITY Zen SINGLE_THREADED
        Core in use  :  Zen
   Copyright (c) 2011-2014, The OpenBLAS Project


================================================================================

----- Orbital basis set information -----
Your calculation utilizes the basis: def2-TZVP(-f)
   F. Weigend and R. Ahlrichs, Phys. Chem. Chem. Phys. 7, 3297 (2005).

----- AuxJ basis set information -----
Your calculation utilizes the auxiliary basis: def2/J
   F. Weigend, Phys. Chem. Chem. Phys. 8, 1057 (2006).

----- AuxC basis set information -----
Your calculation utilizes the auxiliary basis: def2-TZVP/C
  H-La, Hf-Rn : A. Hellweg, C. Hattig, S. Hofener and W. Klopper, Theor. Chem. Acc. 117, 587 (2007).
        Ce-Lu : J. Chmela and M. E. Harding, Mol. Phys. (2018).

================================================================================
                                        WARNINGS
                       Please study these warnings very carefully!
================================================================================

INFO   : Checking CIS options ...

WARNING: (CIS/TDDFT): When using ORCA_ESD, CPCMEQ is set by default to TRUE
  ===> : turning on equilibrium dielectric conditions.

WARNING: CIS/ROCIS methods need fully converged wavefunctions
  ===> : Setting SCFConvForced true
         You can overwrite this default with %scf ConvForced false 


INFO   : the flag for use of the SHARK integral package has been found!

================================================================================
                                       INPUT FILE
================================================================================
NAME = HBQ-KETO_ESD.inp
|  1> ! B3LYP/G Def2-TZVP(-f) Def2-TZVP/C Def2/J RIJCOSX TightSCF ESD(FLUOR) CPCM(Water) AllPop SOSCF
|  2> %maxcore 5000
|  3> %tddft
|  4>   nroots 5
|  5>   iroot 1
|  6> end
|  7> 
|  8> %esd
|  9>   GSHESSIAN "HBQ-KETO_GS.hess"
| 10>   ESHESSIAN "HBQ-KETO_ES.hess"
| 11>   DOHT TRUE
| 12>   LINES VOIGT
| 13>   LINEW 50
| 14>   INLINEW 200
| 15> end
| 16> 
| 17> %output
| 18>   print[p_mos] true
| 19>   print[p_basis] 5
| 20> end
| 21> 
| 22> * xyz 0 1
| 23>   C   -3.63956775583183     -0.54618188582515      0.13739126920685
| 24>   C   -3.64926397839464     -1.93306476913420      0.09291471448676
| 25>   C   -2.47297539031380     -2.67519804055184      0.04404517714981
| 26>   C   -1.24212575410320     -2.01155529675448      0.03833271758851
| 27>   C   -1.20894891681101     -0.58711641312248      0.08288256751980
| 28>   C   -2.43053308453654      0.19075070046080      0.13464276230973
| 29>   O   -2.40814321285587      1.48209970292208      0.17622719709657
| 30>   C   0.06130085891835      0.04680408144192      0.07475504530541
| 31>   C   1.27766593111321     -0.68254071261229      0.02507628906624
| 32>   C   1.20239993215207     -2.11101414935802     -0.01879399758284
| 33>   C   -0.00147203288381     -2.73536492194830     -0.01199275806921
| 34>   N   0.12095456236727      1.40523436851056      0.11653389934818
| 35>   C   1.26568697085965      2.09171214932852      0.11369628001277
| 36>   C   2.47614373704356      1.42419172917417      0.06657779563103
| 37>   C   2.47676402870315      0.03578302915836      0.02235100443542
| 38>   H   -0.85542544192966      1.82299917815447      0.15176859885097
| 39>   H   -4.56900179768702      0.00929966672137      0.17575387618930
| 40>   H   -4.60167309018968     -2.45118175726642      0.09690503515551
| 41>   H   -2.50006077688247     -3.75667770835636      0.01021009405954
| 42>   H   -0.04983758558140     -3.81739282501124     -0.04546255526550
| 43>   H   2.12480985229030     -2.67662135396231     -0.05700428170378
| 44>   H   3.41469421598316     -0.50479475355567     -0.01454401314123
| 45>   H   1.18309314731684      3.16849540032808      0.15000843117774
| 46>   H   3.39817558125339      1.98666458125844      0.06500485117243
| 47> *
| 48> 
| 49> 
| 50>                          ****END OF INPUT****
================================================================================

                       ****************************
                       * Single Point Calculation *
                       ****************************

The geometry is being displaced to its center of mass!
---------------------------------
CARTESIAN COORDINATES (ANGSTROEM)
---------------------------------
  C     -3.076143   -0.152312    0.062502
  C     -3.085839   -1.539195    0.018025
  C     -1.909550   -2.281328   -0.030844
  C     -0.678701   -1.617685   -0.036557
  C     -0.645524   -0.193246    0.007993
  C     -1.867108    0.584621    0.059753
  O     -1.844718    1.875970    0.101338
  C      0.624726    0.440674   -0.000135
  C      1.841091   -0.288671   -0.049813
  C      1.765825   -1.717144   -0.093684
  C      0.561953   -2.341495   -0.086882
  N      0.684380    1.799104    0.041644
  C      1.829112    2.485582    0.038807
  C      3.039569    1.818062   -0.008312
  C      3.040189    0.429653   -0.052539
  H     -0.292001    2.216869    0.076879
  H     -4.005577    0.403170    0.100864
  H     -4.038248   -2.057312    0.022015
  H     -1.936636   -3.362808   -0.064679
  H      0.513587   -3.423523   -0.120352
  H      2.688235   -2.282751   -0.131894
  H      3.978119   -0.110925   -0.089434
  H      1.746518    3.562365    0.075119
  H      3.961601    2.380535   -0.009885

----------------------------
CARTESIAN COORDINATES (A.U.)
----------------------------
  NO LB      ZA    FRAG     MASS         X           Y           Z
   0 C     6.0000    0    12.011   -5.813067   -0.287828    0.118111
   1 C     6.0000    0    12.011   -5.831391   -2.908657    0.034063
   2 C     6.0000    0    12.011   -3.608527   -4.311085   -0.058287
   3 C     6.0000    0    12.011   -1.282559   -3.056982   -0.069082
   4 C     6.0000    0    12.011   -1.219864   -0.365183    0.015105
   5 C     6.0000    0    12.011   -3.528323    1.104773    0.112917
   6 O     8.0000    0    15.999   -3.486012    3.545069    0.191500
   7 C     6.0000    0    12.011    1.180561    0.832753   -0.000254
   8 C     6.0000    0    12.011    3.479158   -0.545509   -0.094133
   9 C     6.0000    0    12.011    3.336925   -3.244932   -0.177036
  10 C     6.0000    0    12.011    1.061937   -4.424784   -0.164184
  11 N     7.0000    0    14.007    1.293290    3.399814    0.078696
  12 C     6.0000    0    12.011    3.456521    4.697069    0.073334
  13 C     6.0000    0    12.011    5.743952    3.435639   -0.015707
  14 C     6.0000    0    12.011    5.745125    0.811926   -0.099284
  15 H     1.0000    0     1.008   -0.551801    4.189276    0.145280
  16 H     1.0000    0     1.008   -7.569443    0.761880    0.190606
  17 H     1.0000    0     1.008   -7.631183   -3.887756    0.041603
  18 H     1.0000    0     1.008   -3.659711   -6.354786   -0.122227
  19 H     1.0000    0     1.008    0.970539   -6.469521   -0.227433
  20 H     1.0000    0     1.008    5.080028   -4.313775   -0.249243
  21 H     1.0000    0     1.008    7.517556   -0.209617   -0.169005
  22 H     1.0000    0     1.008    3.300441    6.731895    0.141954
  23 H     1.0000    0     1.008    7.486340    4.498558   -0.018679

--------------------------------
INTERNAL COORDINATES (ANGSTROEM)
--------------------------------
 C      0   0   0     0.000000000000     0.00000000     0.00000000
 C      1   0   0     1.387629746246     0.00000000     0.00000000
 C      2   1   0     1.391691369045   121.88340144     0.00000000
 C      3   2   1     1.398372321862   119.40855244   359.95412022
 C      4   3   2     1.425521492249   119.64202976     0.00000000
 C      1   2   3     1.415924442693   121.74129038     0.03976618
 O      6   1   2     1.292212373307   122.33341608   180.02435116
 C      5   4   3     1.419667476132   117.82894110   180.02792622
 C      8   5   4     1.419139103926   122.52172027   359.97164635
 C      9   8   5     1.431127503802   117.96792474     0.03379416
 C     10   9   8     1.356159228222   120.40177334   359.97462083
 N      8   5   4     1.360381153135   119.00898637   179.99601496
 C     12   8   5     1.334792898802   123.44246752   179.95726305
 C     13  12   8     1.383115774508   120.15989668     0.00000000
 C     14  13  12     1.389113066709   118.93725242     0.00000000
 H     12   8   5     1.062584976845   110.69053404     0.00000000
 H      1   2   3     1.083457005604   120.50132932   180.04566498
 H      2   1   3     1.084225185227   118.92284117   179.97141820
 H      3   2   1     1.082347773540   120.84908705   179.97331634
 H     11  10   9     1.083625321326   119.94504685   179.99710348
 H     10   9   8     1.082687210824   118.53640284   179.99167151
 H     15  14  13     1.083189096002   120.01848519   180.02188264
 H     13  12   8     1.080556561057   116.54338576   180.02396098
 H     14  13  12     1.080055973190   119.72448670   180.02505289

---------------------------
INTERNAL COORDINATES (A.U.)
---------------------------
 C      0   0   0     0.000000000000     0.00000000     0.00000000
 C      1   0   0     2.622240195688     0.00000000     0.00000000
 C      2   1   0     2.629915550437   121.88340144     0.00000000
 C      3   2   1     2.642540721574   119.40855244   359.95412022
 C      4   3   2     2.693845218370   119.64202976     0.00000000
 C      1   2   3     2.675709423014   121.74129038     0.03976618
 O      6   1   2     2.441927492415   122.33341608   180.02435116
 C      5   4   3     2.682782731124   117.82894110   180.02792622
 C      8   5   4     2.681784252358   122.52172027   359.97164635
 C      9   8   5     2.704439044908   117.96792474     0.03379416
 C     10   9   8     2.562769535330   120.40177334   359.97462083
 N      8   5   4     2.570747817174   119.00898637   179.99601496
 C     12   8   5     2.522393024239   123.44246752   179.95726305
 C     13  12   8     2.613710025327   120.15989668     0.00000000
 C     14  13  12     2.625043265131   118.93725242     0.00000000
 H     12   8   5     2.007994600256   110.69053404     0.00000000
 H      1   2   3     2.047437018471   120.50132932   180.04566498
 H      2   1   3     2.048888667579   118.92284117   179.97141820
 H      3   2   1     2.045340873651   120.84908705   179.97331634
 H     11  10   9     2.047755089089   119.94504685   179.99710348
 H     10   9   8     2.045982317157   118.53640284   179.99167151
 H     15  14  13     2.046930742693   120.01848519   180.02188264
 H     13  12   8     2.041955972609   116.54338576   180.02396098
 H     14  13  12     2.041009998635   119.72448670   180.02505289

---------------------
BASIS SET INFORMATION
---------------------
There are 4 groups of distinct atoms

 Group   1 Type C   : 11s6p2d contracted to 5s3p2d pattern {62111/411/11}
 Group   2 Type O   : 11s6p2d contracted to 5s3p2d pattern {62111/411/11}
 Group   3 Type N   : 11s6p2d contracted to 5s3p2d pattern {62111/411/11}
 Group   4 Type H   : 5s1p contracted to 3s1p pattern {311/1}

Atom   0C    basis set group =>   1
Atom   1C    basis set group =>   1
Atom   2C    basis set group =>   1
Atom   3C    basis set group =>   1
Atom   4C    basis set group =>   1
Atom   5C    basis set group =>   1
Atom   6O    basis set group =>   2
Atom   7C    basis set group =>   1
Atom   8C    basis set group =>   1
Atom   9C    basis set group =>   1
Atom  10C    basis set group =>   1
Atom  11N    basis set group =>   3
Atom  12C    basis set group =>   1
Atom  13C    basis set group =>   1
Atom  14C    basis set group =>   1
Atom  15H    basis set group =>   4
Atom  16H    basis set group =>   4
Atom  17H    basis set group =>   4
Atom  18H    basis set group =>   4
Atom  19H    basis set group =>   4
Atom  20H    basis set group =>   4
Atom  21H    basis set group =>   4
Atom  22H    basis set group =>   4
Atom  23H    basis set group =>   4

-------------------------
BASIS SET IN INPUT FORMAT
-------------------------

 # Basis set for element : H 
 NewGTO H 
 S 3 
   1      34.0613410000      0.0254393072
   2       5.1235746000      0.1900859489
   3       1.1646626000      0.8524411301
 S 1 
   1       0.3272304100      1.0000000000
 S 1 
   1       0.1030724100      1.0000000000
 P 1 
   1       0.8000000000      1.0000000000
  end;

 # Basis set for element : C 
 NewGTO C 
 S 6 
   1   13575.3496820000      0.0006064549
   2    2035.2333680000      0.0046979088
   3     463.2256235900      0.0243324776
   4     131.2001959800      0.0973999683
   5      42.8530158910      0.3019558425
   6      15.5841857660      0.6623360915
 S 2 
   1       6.2067138508      0.6559530854
   2       2.5764896527      0.3758563329
 S 1 
   1       0.5769633942      1.0000000000
 S 1 
   1       0.2297283136      1.0000000000
 S 1 
   1       0.0951644400      1.0000000000
 P 4 
   1      34.6972322440      0.0113272200
   2       7.9582622826      0.0761696592
   3       2.3780826883      0.3019225220
   4       0.8143320818      0.7278502735
 P 1 
   1       0.2888754725      1.0000000000
 P 1 
   1       0.1005682367      1.0000000000
 D 1 
   1       1.0970000000      1.0000000000
 D 1 
   1       0.3180000000      1.0000000000
  end;

 # Basis set for element : N 
 NewGTO N 
 S 6 
   1   19730.8006470000      0.0005862639
   2    2957.8958745000      0.0045428821
   3     673.2213359500      0.0235584136
   4     190.6824949400      0.0947091933
   5      62.2954418980      0.2971978492
   6      22.6541611820      0.6691624689
 S 2 
   1       8.9791477428      0.6459668363
   2       3.6863002370      0.3870057440
 S 1 
   1       0.8466007680      1.0000000000
 S 1 
   1       0.3364713377      1.0000000000
 S 1 
   1       0.1364765367      1.0000000000
 P 4 
   1      49.2003805100      0.0114488252
   2      11.3467905370      0.0784223379
   3       3.4273972411      0.3081809474
   4       1.1785525134      0.7202719637
 P 1 
   1       0.4164220497      1.0000000000
 P 1 
   1       0.1426082601      1.0000000000
 D 1 
   1       1.6540000000      1.0000000000
 D 1 
   1       0.4690000000      1.0000000000
  end;

 # Basis set for element : O 
 NewGTO O 
 S 6 
   1   27032.3826310000      0.0005722733
   2    4052.3871392000      0.0044353233
   3     922.3272271000      0.0230201076
   4     261.2407098900      0.0928224906
   5      85.3546413510      0.2937850002
   6      31.0350352450      0.6740160450
 S 2 
   1      12.2608607280      0.6383993702
   2       4.9987076005      0.3953458713
 S 1 
   1       1.1703108158      1.0000000000
 S 1 
   1       0.4647474099      1.0000000000
 S 1 
   1       0.1850453636      1.0000000000
 P 4 
   1      63.2749548010      0.0120183321
   2      14.6270493790      0.0830054217
   3       4.4501223456      0.3199174393
   4       1.5275799647      0.7071554292
 P 1 
   1       0.5293511794      1.0000000000
 P 1 
   1       0.1747842127      1.0000000000
 D 1 
   1       2.3140000000      1.0000000000
 D 1 
   1       0.6450000000      1.0000000000
  end;

---------------------------------
AUXILIARY/J BASIS SET INFORMATION
---------------------------------
There are 4 groups of distinct atoms

 Group   1 Type C   : 12s5p4d2f1g contracted to 6s4p3d1f1g pattern {711111/2111/211/2/1}
 Group   2 Type O   : 12s5p4d2f1g contracted to 6s4p3d1f1g pattern {711111/2111/211/2/1}
 Group   3 Type N   : 12s5p4d2f1g contracted to 6s4p3d1f1g pattern {711111/2111/211/2/1}
 Group   4 Type H   : 5s2p1d contracted to 3s1p1d pattern {311/2/1}

Atom   0C    basis set group =>   1
Atom   1C    basis set group =>   1
Atom   2C    basis set group =>   1
Atom   3C    basis set group =>   1
Atom   4C    basis set group =>   1
Atom   5C    basis set group =>   1
Atom   6O    basis set group =>   2
Atom   7C    basis set group =>   1
Atom   8C    basis set group =>   1
Atom   9C    basis set group =>   1
Atom  10C    basis set group =>   1
Atom  11N    basis set group =>   3
Atom  12C    basis set group =>   1
Atom  13C    basis set group =>   1
Atom  14C    basis set group =>   1
Atom  15H    basis set group =>   4
Atom  16H    basis set group =>   4
Atom  17H    basis set group =>   4
Atom  18H    basis set group =>   4
Atom  19H    basis set group =>   4
Atom  20H    basis set group =>   4
Atom  21H    basis set group =>   4
Atom  22H    basis set group =>   4
Atom  23H    basis set group =>   4

-------------------------------------
AUXILIARY/J BASIS SET IN INPUT FORMAT
-------------------------------------

 # Auxiliary/J basis set for element : H 
 NewAuxJGTO H 
 S 3 
   1      15.6752927000      0.1007184237
   2       3.6063578000      0.3404257499
   3       1.2080016000      0.6491996172
 S 1 
   1       0.4726794000      1.0000000000
 S 1 
   1       0.2018100000      1.0000000000
 P 2 
   1       2.0281365000      0.5596620919
   2       0.5358730000      0.5596620919
 D 1 
   1       2.2165124000      1.0000000000
  end;

 # Auxiliary/J basis set for element : C 
 NewAuxJGTO C 
 S 7 
   1    1861.0916331000      0.0134602335
   2     642.9939764000      0.0299160374
   3     235.1105725000      0.1008649584
   4      90.7028894000      0.2370970548
   5      36.7794552000      0.3924037254
   6      15.6046273000      0.3195862154
   7       6.8907294000      0.0530104441
 S 1 
   1       3.1478850000     -1.0000000000
 S 1 
   1       1.4777287000      1.0000000000
 S 1 
   1       0.7076466000      1.0000000000
 S 1 
   1       0.3430122000      1.0000000000
 S 1 
   1       0.1669453000      1.0000000000
 P 2 
   1      13.5472892000     -0.6769313712
   2       5.4669419000     -0.3779500978
 P 1 
   1       2.1751721000      1.0000000000
 P 1 
   1       0.8582194000      1.0000000000
 P 1 
   1       0.3376720000      1.0000000000
 D 2 
   1       5.9287253000     -0.3533329857
   2       1.9809209000     -0.7456525731
 D 1 
   1       0.8055417000     -1.0000000000
 D 1 
   1       0.3531244000     -1.0000000000
 F 2 
   1       1.6755626000      0.6311076882
   2       0.5997536000      0.4968166032
 G 1 
   1       1.0024600000     -1.0000000000
  end;

 # Auxiliary/J basis set for element : N 
 NewAuxJGTO N 
 S 7 
   1    2542.9401785000      0.0128431329
   2    1029.5472946000      0.0206655120
   3     424.9053546000      0.0652200677
   4     178.4573708000      0.1617388940
   5      76.1362742000      0.3094256941
   6      32.9338653000      0.3918849307
   7      14.4155436000      0.1822470660
 S 1 
   1       6.3718891000     -1.0000000000
 S 1 
   1       2.8381742000      1.0000000000
 S 1 
   1       1.2711793000      1.0000000000
 S 1 
   1       0.5712407000      1.0000000000
 S 1 
   1       0.2569887000      1.0000000000
 P 2 
   1      17.8975990000     -1.0974070137
   2       6.5346319000      0.1380055963
 P 1 
   1       2.3523645000      1.0000000000
 P 1 
   1       0.8397377000      1.0000000000
 P 1 
   1       0.2989335000      1.0000000000
 D 2 
   1       7.6909870000      0.1770780943
   2       2.3044972000      0.8918319220
 D 1 
   1       0.8403987000      1.0000000000
 D 1 
   1       0.3303797000      1.0000000000
 F 2 
   1       2.3331076000      0.6223178877
   2       0.8446137000      0.5036714203
 G 1 
   1       1.4037700000     -1.0000000000
  end;

 # Auxiliary/J basis set for element : O 
 NewAuxJGTO O 
 S 7 
   1    2876.8216605000      0.0168151159
   2    1004.7443032000      0.0340137548
   3     369.7579954000      0.1194951309
   4     142.9442404000      0.2664627624
   5      57.8366425000      0.4202764046
   6      24.3864983000      0.2765077335
   7      10.6622662000      0.0057008815
 S 1 
   1       4.8070437000     -1.0000000000
 S 1 
   1       2.2210770000      1.0000000000
 S 1 
   1       1.0447795000      1.0000000000
 S 1 
   1       0.4968425000      1.0000000000
 S 1 
   1       0.2371384000      1.0000000000
 P 2 
   1      64.2613382000     -0.2731534179
   2      16.3006076000     -0.8168011598
 P 1 
   1       4.3550542000      1.0000000000
 P 1 
   1       1.2019554000      1.0000000000
 P 1 
   1       0.3354196000      1.0000000000
 D 2 
   1       9.2146611000     -0.4661230638
   2       2.8435251000     -0.6600908911
 D 1 
   1       0.9955759000     -1.0000000000
 D 1 
   1       0.3649441000     -1.0000000000
 F 2 
   1       2.6420115000      0.5931563945
   2       0.7345613000      0.5931563945
 G 1 
   1       1.3931000000     -1.0000000000
  end;

---------------------------------
AUXILIARY/C BASIS SET INFORMATION
---------------------------------
There are 4 groups of distinct atoms

 Group   1 Type C   : 8s6p5d3f1g contracted to 8s6p4d3f1g pattern {11111111/111111/2111/111/1}
 Group   2 Type O   : 8s6p5d3f1g contracted to 8s6p4d3f1g pattern {11111111/111111/2111/111/1}
 Group   3 Type N   : 8s6p5d3f1g contracted to 8s6p4d3f1g pattern {11111111/111111/2111/111/1}
 Group   4 Type H   : 4s3p2d contracted to 4s2p1d pattern {1111/21/2}

Atom   0C    basis set group =>   1
Atom   1C    basis set group =>   1
Atom   2C    basis set group =>   1
Atom   3C    basis set group =>   1
Atom   4C    basis set group =>   1
Atom   5C    basis set group =>   1
Atom   6O    basis set group =>   2
Atom   7C    basis set group =>   1
Atom   8C    basis set group =>   1
Atom   9C    basis set group =>   1
Atom  10C    basis set group =>   1
Atom  11N    basis set group =>   3
Atom  12C    basis set group =>   1
Atom  13C    basis set group =>   1
Atom  14C    basis set group =>   1
Atom  15H    basis set group =>   4
Atom  16H    basis set group =>   4
Atom  17H    basis set group =>   4
Atom  18H    basis set group =>   4
Atom  19H    basis set group =>   4
Atom  20H    basis set group =>   4
Atom  21H    basis set group =>   4
Atom  22H    basis set group =>   4
Atom  23H    basis set group =>   4

-------------------------------------
AUXILIARY/C BASIS SET IN INPUT FORMAT
-------------------------------------

 # Auxiliary/C basis set for element : H 
 NewAuxCGTO H 
 S 1 
   1       9.3352160900      1.0000000000
 S 1 
   1       1.8611070400      1.0000000000
 S 1 
   1       0.5951246600      1.0000000000
 S 1 
   1       0.2644809900      1.0000000000
 P 2 
   1       2.4524982100      0.0844547495
   2       1.3540383000      0.9235458776
 P 1 
   1       0.5952239400      1.0000000000
 D 2 
   1       1.5816376600      1.0050058114
   2       0.6274396000     -0.0072040465
  end;

 # Auxiliary/C basis set for element : C 
 NewAuxCGTO C 
 S 1 
   1     281.4769331600      1.0000000000
 S 1 
   1      59.8626069100      1.0000000000
 S 1 
   1      23.2828449200      1.0000000000
 S 1 
   1       9.4336543900      1.0000000000
 S 1 
   1       3.3115794700      1.0000000000
 S 1 
   1       1.0743857900      1.0000000000
 S 1 
   1       0.4059170000      1.0000000000
 S 1 
   1       0.2068278200      1.0000000000
 P 1 
   1      24.7943227600      1.0000000000
 P 1 
   1       6.3790867800      1.0000000000
 P 1 
   1       2.7361982700      1.0000000000
 P 1 
   1       1.1318078500      1.0000000000
 P 1 
   1       0.4917128000      1.0000000000
 P 1 
   1       0.2376059100      1.0000000000
 D 2 
   1       9.0676879600      0.2778444250
   2       3.4116768900      0.7926293847
 D 1 
   1       1.4150161500      1.0000000000
 D 1 
   1       0.5879348600      1.0000000000
 D 1 
   1       0.2575308700      1.0000000000
 F 1 
   1       2.3870173500      1.0000000000
 F 1 
   1       1.1606799200      1.0000000000
 F 1 
   1       0.5528981700      1.0000000000
 G 1 
   1       1.2288470700      1.0000000000
  end;

 # Auxiliary/C basis set for element : N 
 NewAuxCGTO N 
 S 1 
   1     291.1839425700      1.0000000000
 S 1 
   1      62.0305323800      1.0000000000
 S 1 
   1      21.9811322900      1.0000000000
 S 1 
   1       9.0671153400      1.0000000000
 S 1 
   1       3.6065484800      1.0000000000
 S 1 
   1       1.3728447400      1.0000000000
 S 1 
   1       0.6370908500      1.0000000000
 S 1 
   1       0.2690723100      1.0000000000
 P 1 
   1      34.1216919700      1.0000000000
 P 1 
   1       8.6692708500      1.0000000000
 P 1 
   1       3.9695844400      1.0000000000
 P 1 
   1       1.6756902700      1.0000000000
 P 1 
   1       0.6976940100      1.0000000000
 P 1 
   1       0.3358254400      1.0000000000
 D 2 
   1      12.7271734000      0.3102751905
   2       5.0291661100      0.7592406615
 D 1 
   1       2.0912502500      1.0000000000
 D 1 
   1       0.8590204300      1.0000000000
 D 1 
   1       0.3506847900      1.0000000000
 F 1 
   1       3.4686536900      1.0000000000
 F 1 
   1       1.6686504200      1.0000000000
 F 1 
   1       0.8094760000      1.0000000000
 G 1 
   1       1.7813141500      1.0000000000
  end;

 # Auxiliary/C basis set for element : O 
 NewAuxCGTO O 
 S 1 
   1     364.9129100000      1.0000000000
 S 1 
   1      77.3870940000      1.0000000000
 S 1 
   1      24.3017060000      1.0000000000
 S 1 
   1       8.4369545000      1.0000000000
 S 1 
   1       3.1527941000      1.0000000000
 S 1 
   1       1.5775430000      1.0000000000
 S 1 
   1       0.7817824400      1.0000000000
 S 1 
   1       0.3165267900      1.0000000000
 P 1 
   1      56.7359480000      1.0000000000
 P 1 
   1      14.9972170000      1.0000000000
 P 1 
   1       5.6428116000      1.0000000000
 P 1 
   1       2.4069219800      1.0000000000
 P 1 
   1       1.0264059600      1.0000000000
 P 1 
   1       0.4376997700      1.0000000000
 D 2 
   1      12.4468210000      0.5749971811
   2       6.1216917000      0.4768904974
 D 1 
   1       2.7102949000      1.0000000000
 D 1 
   1       1.1524061000      1.0000000000
 D 1 
   1       0.4138617400      1.0000000000
 F 1 
   1       4.7793539000      1.0000000000
 F 1 
   1       2.3204642000      1.0000000000
 F 1 
   1       1.0912804000      1.0000000000
 G 1 
   1       2.3383107000      1.0000000000
  end;

------------------------------------------------------------------------------
                           ORCA GTO INTEGRAL CALCULATION
                           -- RI-GTO INTEGRALS CHOSEN --
------------------------------------------------------------------------------
------------------------------------------------------------------------------
                   ___                                                        
                  /   \      - P O W E R E D   B Y -                         
                 /     \                                                     
                 |  |  |   _    _      __       _____    __    __             
                 |  |  |  | |  | |    /  \     |  _  \  |  |  /  |          
                  \  \/   | |  | |   /    \    | | | |  |  | /  /          
                 / \  \   | |__| |  /  /\  \   | |_| |  |  |/  /          
                |  |  |   |  __  | /  /__\  \  |    /   |      \           
                |  |  |   | |  | | |   __   |  |    \   |  |\   \          
                \     /   | |  | | |  |  |  |  | |\  \  |  | \   \       
                 \___/    |_|  |_| |__|  |__|  |_| \__\ |__|  \__/        
                                                                              
                      - O R C A' S   B I G   F R I E N D -                    
                                      &                                       
                       - I N T E G R A L  F E E D E R -                       
                                                                              
 v1 FN, 2020, v2 2021                                                         
------------------------------------------------------------------------------


Reading SHARK input file HBQ-KETO_ESD.SHARKINP.tmp ... ok
----------------------
SHARK INTEGRAL PACKAGE
----------------------

Number of atoms                             ...     24
Number of basis functions                   ...    414
Number of shells                            ...    186
Maximum angular momentum                    ...      2
Integral batch strategy                     ... SHARK/LIBINT Hybrid
RI-J (if used) integral strategy            ... SPLIT-RIJ (Revised 2003 algorithm where possible)
Printlevel                                  ...      1
Contraction scheme used                     ... SEGMENTED contraction
Coulomb Range Separation                    ... NOT USED
Exchange Range Separation                   ... NOT USED
Finite Nucleus Model                        ... NOT USED
Auxiliary Coulomb fitting basis             ... AVAILABLE
   # of basis functions in Aux-J            ...    834
   # of shells in Aux-J                     ...    270
   Maximum angular momentum in Aux-J        ...      4
Auxiliary J/K fitting basis                 ... NOT available
Auxiliary Correlation fitting basis         ... AVAILABLE
   # of basis functions in Aux-C            ...   1275
   # of shells in Aux-C                     ...    393
   Maximum angular momentum in Aux-C        ...      4
Auxiliary 'external' fitting basis          ... NOT available
Integral threshold                          ...     2.500000e-11
Primitive cut-off                           ...     2.500000e-12
Primitive pair pre-selection threshold      ...     2.500000e-12

Calculating pre-screening integrals         ... done (  0.1 sec) Dimension = 186
Organizing shell pair data                  ... done (  0.7 sec)
Shell pair information
Total number of shell pairs                 ...     17391
Shell pairs after pre-screening             ...     14567
Total number of primitive shell pairs       ...     57987
Primitive shell pairs kept                  ...     33623
          la=0 lb=0:   4126 shell pairs
          la=1 lb=0:   4695 shell pairs
          la=1 lb=1:   1338 shell pairs
          la=2 lb=0:   2551 shell pairs
          la=2 lb=1:   1448 shell pairs
          la=2 lb=2:    409 shell pairs

Calculating one electron integrals          ... done (  0.2 sec)
Calculating RI/J V-Matrix + Cholesky decomp.... done (  0.4 sec)
Calculating RI/C V-Matrix + Cholesky decomp.... done (  0.6 sec)
Calculating Nuclear repulsion               ... done (  0.1 sec) ENN=    907.596503256078 Eh

SHARK setup successfully completed in   6.2 seconds

Maximum memory used throughout the entire GTOINT-calculation: 123.6 MB
-------------------------------------------------------------------------------
                                 ORCA SCF
-------------------------------------------------------------------------------

------------
SCF SETTINGS
------------
Hamiltonian:
 Density Functional     Method          .... DFT(GTOs)
 Exchange Functional    Exchange        .... B88
   X-Alpha parameter    XAlpha          ....  0.666667
   Becke's b parameter  XBeta           ....  0.004200
 Correlation Functional Correlation     .... LYP
 LDA part of GGA corr.  LDAOpt          .... VWN-3
 Gradients option       PostSCFGGA      .... off
 Hybrid DFT is turned on
   Fraction HF Exchange ScalHFX         ....  0.200000
   Scaling of DF-GGA-X  ScalDFX         ....  0.720000
   Scaling of DF-GGA-C  ScalDFC         ....  0.810000
   Scaling of DF-LDA-C  ScalLDAC        ....  1.000000
   Perturbative correction              ....  0.000000
   Density functional embedding theory  .... OFF
   NL short-range parameter             ....  4.800000
 RI-approximation to the Coulomb term is turned on
   Number of AuxJ basis functions       .... 834
   RIJ-COSX (HFX calculated with COS-X)).... on


General Settings:
 Integral files         IntName         .... HBQ-KETO_ESD
 Hartree-Fock type      HFTyp           .... RHF
 Total Charge           Charge          ....    0
 Multiplicity           Mult            ....    1
 Number of Electrons    NEL             ....  102
 Basis Dimension        Dim             ....  414
 Nuclear Repulsion      ENuc            ....    907.5965032561 Eh

Convergence Acceleration:
 DIIS                   CNVDIIS         .... on
   Start iteration      DIISMaxIt       ....    12
   Startup error        DIISStart       ....  0.200000
   # of expansion vecs  DIISMaxEq       ....     5
   Bias factor          DIISBfac        ....   1.050
   Max. coefficient     DIISMaxC        ....  10.000
 Trust-Rad. Augm. Hess. CNVTRAH         .... auto
   Auto Start mean grad. ratio tolernc. ....  1.125000
   Auto Start start iteration           ....    20
   Auto Start num. interpolation iter.  ....    10
   Max. Number of Micro iterations      ....    16
   Max. Number of Macro iterations      .... Maxiter - #DIIS iter
   Number of Davidson start vectors     ....     2
   Converg. threshold I  (grad. norm)   ....   1.000e-05
   Converg. threshold II (energy diff.) ....   1.000e-08
   Grad. Scal. Fac. for Micro threshold ....   0.100
   Minimum threshold for Micro iter.    ....   0.010
   NR start threshold (gradient norm)   ....   0.001
   Initial trust radius                 ....   0.400
   Minimum AH scaling param. (alpha)    ....   1.000
   Maximum AH scaling param. (alpha)    .... 1000.000
   Orbital update algorithm             .... Taylor
   White noise on init. David. guess    .... on
   Maximum white noise                  ....   0.010
   Quad. conv. algorithm                .... NR
 SOSCF                  CNVSOSCF        .... on
   Start iteration      SOSCFMaxIt      ....   150
   Startup grad/error   SOSCFStart      ....  0.003300
 Level Shifting         CNVShift        .... on
   Level shift para.    LevelShift      ....    0.2500
   Turn off err/grad.   ShiftErr        ....    0.0010
 Zerner damping         CNVZerner       .... off
 Static damping         CNVDamp         .... on
   Fraction old density DampFac         ....    0.7000
   Max. Damping (<1)    DampMax         ....    0.9800
   Min. Damping (>=0)   DampMin         ....    0.0000
   Turn off err/grad.   DampErr         ....    0.1000
 Fernandez-Rico         CNVRico         .... off

SCF Procedure:
 Maximum # iterations   MaxIter         ....   125
 SCF integral mode      SCFMode         .... Direct
   Integral package                     .... SHARK and LIBINT hybrid scheme
 Reset frequency        DirectResetFreq ....    20
 Integral Threshold     Thresh          ....  2.500e-11 Eh
 Primitive CutOff       TCut            ....  2.500e-12 Eh

Convergence Tolerance:
 Convergence Check Mode ConvCheckMode   .... Total+1el-Energy
 Convergence forced     ConvForced      .... 1
 Energy Change          TolE            ....  1.000e-08 Eh
 1-El. energy change                    ....  1.000e-05 Eh
 Orbital Gradient       TolG            ....  1.000e-05
 Orbital Rotation angle TolX            ....  1.000e-05
 DIIS Error             TolErr          ....  5.000e-07


Diagonalization of the overlap matrix:
Smallest eigenvalue                        ... 4.679e-06
Time for diagonalization                   ...    0.090 sec
Threshold for overlap eigenvalues          ... 1.000e-08
Number of eigenvalues below threshold      ... 0
Time for construction of square roots      ...    0.154 sec
Total time needed                          ...    0.245 sec

Time for model grid setup =    0.802 sec

------------------------------
INITIAL GUESS: MODEL POTENTIAL
------------------------------
Loading Hartree-Fock densities                     ... done
Calculating cut-offs                               ... done
Initializing the effective Hamiltonian             ... done
Setting up the integral package (SHARK)            ... done
Starting the Coulomb interaction                   ... done (   1.9 sec)
Reading the grid                                   ... done
Mapping shells                                     ... done
Starting the XC term evaluation                    ... done (   0.8 sec)
  promolecular density results
     # of electrons  =    101.992377046
     EX              =    -84.352127437
     EC              =     -3.484068663
     EX+EC           =    -87.836196101
Transforming the Hamiltonian                       ... done (   0.0 sec)
Diagonalizing the Hamiltonian                      ... done (   0.0 sec)
Back transforming the eigenvectors                 ... done (   0.0 sec)
Now organizing SCF variables                       ... done
                      ------------------
                      INITIAL GUESS DONE (   3.9 sec)
                      ------------------
-------------------
DFT GRID GENERATION
-------------------

General Integration Accuracy     IntAcc      ... 4.388
Radial Grid Type                 RadialGrid  ... OptM3 with GC (2021)
Angular Grid (max. ang.)         AngularGrid ... 4 (Lebedev-302)
Angular grid pruning method      GridPruning ... 4 (adaptive)
Weight generation scheme         WeightScheme... Becke
Basis function cutoff            BFCut       ... 1.0000e-11
Integration weight cutoff        WCut        ... 1.0000e-14
Angular grids for H and He will be reduced by one unit
Partially contracted basis set               ... off
Rotationally invariant grid construction     ... off

Total number of grid points                  ...   118392
Total number of batches                      ...     1860
Average number of points per batch           ...       63
Average number of grid points per atom       ...     4933
Time for grid setup =    2.155 sec

--------------------
COSX GRID GENERATION
--------------------

GRIDX 1
-------
General Integration Accuracy     IntAcc      ... 3.816
Radial Grid Type                 RadialGrid  ... OptM3 with GC (2021)
Angular Grid (max. ang.)         AngularGrid ... 1 (Lebedev-50)
Angular grid pruning method      GridPruning ... 4 (adaptive)
Weight generation scheme         WeightScheme... Becke
Basis function cutoff            BFCut       ... 1.0000e-11
Integration weight cutoff        WCut        ... 1.0000e-14
Angular grids for H and He will be reduced by one unit
Partially contracted basis set               ... on
Rotationally invariant grid construction     ... off

Total number of grid points                  ...    15091
Total number of batches                      ...      244
Average number of points per batch           ...       61
Average number of grid points per atom       ...      629
UseSFitting                                  ... on

GRIDX 2
-------
General Integration Accuracy     IntAcc      ... 4.020
Radial Grid Type                 RadialGrid  ... OptM3 with GC (2021)
Angular Grid (max. ang.)         AngularGrid ... 2 (Lebedev-110)
Angular grid pruning method      GridPruning ... 4 (adaptive)
Weight generation scheme         WeightScheme... Becke
Basis function cutoff            BFCut       ... 1.0000e-11
Integration weight cutoff        WCut        ... 1.0000e-14
Angular grids for H and He will be reduced by one unit
Partially contracted basis set               ... on
Rotationally invariant grid construction     ... off

Total number of grid points                  ...    33205
Total number of batches                      ...      533
Average number of points per batch           ...       62
Average number of grid points per atom       ...     1384
UseSFitting                                  ... on

GRIDX 3
-------
General Integration Accuracy     IntAcc      ... 4.338
Radial Grid Type                 RadialGrid  ... OptM3 with GC (2021)
Angular Grid (max. ang.)         AngularGrid ... 3 (Lebedev-194)
Angular grid pruning method      GridPruning ... 4 (adaptive)
Weight generation scheme         WeightScheme... Becke
Basis function cutoff            BFCut       ... 1.0000e-11
Integration weight cutoff        WCut        ... 1.0000e-14
Angular grids for H and He will be reduced by one unit
Partially contracted basis set               ... on
Rotationally invariant grid construction     ... off

Total number of grid points                  ...    73079
Total number of batches                      ...     1154
Average number of points per batch           ...       63
Average number of grid points per atom       ...     3045
UseSFitting                                  ... on

Time for X-Grid setup             =    9.199 sec


--------------------
CPCM SOLVATION MODEL
--------------------
CPCM parameters:
  Epsilon                                         ...      80.4000
  Refrac                                          ...       1.3300
  Rsolv                                           ...       1.3000
  Surface type                                    ... GAUSSIAN VDW
  Epsilon function type                           ...         CPCM
Radii:
 Radius for C  used is    3.8550 Bohr (=   2.0400 Ang.)
 Radius for O  used is    3.4469 Bohr (=   1.8240 Ang.)
 Radius for N  used is    3.5149 Bohr (=   1.8600 Ang.)
 Radius for H  used is    2.4944 Bohr (=   1.3200 Ang.)
Calculating surface                               ...        done! (  0.0s)
GEPOL surface points                              ...         1258
GEPOL Volume                                      ...    1541.1226
GEPOL Surface-area                                ...     784.4362
Calculating surface distance matrix               ...        done! (  0.0s)
Performing Cholesky decomposition & store         ...        done! (  0.7s)
Overall time for CPCM initialization              ...                 0.7s
--------------
SCF ITERATIONS
--------------
ITER       Energy         Delta-E        Max-DP      RMS-DP      [F,P]     Damp
               ***  Starting incremental Fock matrix formation  ***
  0   -630.6969872177   0.000000000000 0.95646377  0.00768428  0.3190753 0.7000
  1   -630.8471006201  -0.150113402383 0.95528467  0.00752857  0.1277484 0.7000
                               ***Turning on DIIS***
  2   -630.9110225682  -0.063921948136 1.02421490  0.00858201  0.0400851 0.0000
  3   -631.0097128902  -0.098690322002 0.97116654  0.00750332  0.0645341 0.0000
  4   -631.0304575742  -0.020744683934 0.18907518  0.00151675  0.0203053 0.0000
  5   -631.0317493057  -0.001291731544 0.13068640  0.00100622  0.0114097 0.0000
                      *** Initiating the SOSCF procedure ***
                           *** Shutting down DIIS ***
                      *** Re-Reading the Fockian *** 
                      *** Removing any level shift *** 
ITER      Energy       Delta-E        Grad      Rot      Max-DP    RMS-DP
  6   -631.03192395  -0.0001746395  0.000305  0.000305  0.060912  0.000466
               *** Restarting incremental Fock matrix formation ***
  7   -631.03187367   0.0000502760  0.000319  0.001531  0.007373  0.000075
  8   -631.03186467   0.0000090013  0.000562  0.000899  0.002584  0.000028
  9   -631.03187851  -0.0000138404  0.000032  0.000149  0.001379  0.000010
 10   -631.03187841   0.0000001002  0.000049  0.000068  0.000267  0.000003
 11   -631.03187860  -0.0000001927  0.000003  0.000012  0.000299  0.000004
 12   -631.03187861  -0.0000000080  0.000004  0.000009  0.000512  0.000005
                  ***Gradient check signals convergence***
              ***Rediagonalizing the Fockian in SOSCF/NRSCF***

               *****************************************************
               *                     SUCCESS                       *
               *           SCF CONVERGED AFTER  13 CYCLES          *
               *****************************************************

Old exchange energy                            =    -17.106430165 Eh
New exchange energy                            =    -17.106399394 Eh
Exchange energy change after final integration =      0.000030770 Eh
Total energy after final integration           =   -631.031847836 Eh
Final COS-X integration done in                =    49.905 sec

----------------
TOTAL SCF ENERGY
----------------

Total Energy       :         -631.03184784 Eh          -17171.24955 eV

Components:
Nuclear Repulsion  :          907.59650326 Eh           24696.95642 eV
Electronic Energy  :        -1538.62835109 Eh          -41868.20597 eV
One Electron Energy:        -2655.42672148 Eh          -72257.83461 eV
Two Electron Energy:         1116.79837038 Eh           30389.62864 eV
Max COSX asymmetry :            0.00000193 Eh               0.00005 eV
CPCM Dielectric    :           -0.02551815 Eh              -0.69438 eV

Virial components:
Potential Energy   :        -1259.01609749 Eh          -34259.56974 eV
Kinetic Energy     :          627.98424965 Eh           17088.32019 eV
Virial Ratio       :            2.00485299


DFT components:
N(Alpha)           :       51.000033386127 electrons
N(Beta)            :       51.000033386127 electrons
N(Total)           :      102.000066772254 electrons
E(X)               :      -68.013663377494 Eh       
E(C)               :       -4.484620682438 Eh       
E(XC)              :      -72.498284059932 Eh       
DFET-embed. en.    :        0.000000000000 Eh       
CPCM Solvation Model Properties:
Surface-charge          :           -0.02838392
Charge-correction       :           -0.00026959 Eh              -0.00734 eV
Free-energy (cav+disp)  :  This term is not implemented in the current solvation scheme

---------------
SCF CONVERGENCE
---------------

  Last Energy change         ...    2.5804e-09  Tolerance :   1.0000e-08
  Last MAX-Density change    ...    2.6645e-15  Tolerance :   1.0000e-07
  Last RMS-Density change    ...    3.3312e-17  Tolerance :   5.0000e-09
  Last Orbital Gradient      ...    8.3995e-07  Tolerance :   1.0000e-05
  Last Orbital Rotation      ...    2.0233e-06  Tolerance :   1.0000e-05

             **** THE GBW FILE WAS UPDATED (HBQ-KETO_ESD.gbw) ****
             **** DENSITY HBQ-KETO_ESD.scfp WAS UPDATED ****
             **** ENERGY FILE WAS UPDATED (HBQ-KETO_ESD.en.tmp) ****
             **** THE GBW FILE WAS UPDATED (HBQ-KETO_ESD.gbw) ****
             **** DENSITY HBQ-KETO_ESD.scfp WAS UPDATED ****
----------------
ORBITAL ENERGIES
----------------

  NO   OCC          E(Eh)            E(eV) 
   0   2.0000     -19.080754      -519.2137 
   1   2.0000     -14.389284      -391.5523 
   2   2.0000     -10.246014      -278.8082 
   3   2.0000     -10.243672      -278.7445 
   4   2.0000     -10.230345      -278.3818 
   5   2.0000     -10.210634      -277.8455 
   6   2.0000     -10.209106      -277.8039 
   7   2.0000     -10.198113      -277.5048 
   8   2.0000     -10.192974      -277.3649 
   9   2.0000     -10.187964      -277.2286 
  10   2.0000     -10.187009      -277.2026 
  11   2.0000     -10.184005      -277.1209 
  12   2.0000     -10.176898      -276.9275 
  13   2.0000     -10.163497      -276.5628 
  14   2.0000     -10.159691      -276.4593 
  15   2.0000      -1.017001       -27.6740 
  16   2.0000      -0.986951       -26.8563 
  17   2.0000      -0.879216       -23.9247 
  18   2.0000      -0.843499       -22.9528 
  19   2.0000      -0.819809       -22.3081 
  20   2.0000      -0.782761       -21.3000 
  21   2.0000      -0.750909       -20.4333 
  22   2.0000      -0.721048       -19.6207 
  23   2.0000      -0.671026       -18.2596 
  24   2.0000      -0.662530       -18.0284 
  25   2.0000      -0.640878       -17.4392 
  26   2.0000      -0.601398       -16.3649 
  27   2.0000      -0.567208       -15.4345 
  28   2.0000      -0.547445       -14.8967 
  29   2.0000      -0.527816       -14.3626 
  30   2.0000      -0.513774       -13.9805 
  31   2.0000      -0.488940       -13.3047 
  32   2.0000      -0.483284       -13.1508 
  33   2.0000      -0.466342       -12.6898 
  34   2.0000      -0.458042       -12.4640 
  35   2.0000      -0.444928       -12.1071 
  36   2.0000      -0.434600       -11.8261 
  37   2.0000      -0.422768       -11.5041 
  38   2.0000      -0.407897       -11.0994 
  39   2.0000      -0.398750       -10.8505 
  40   2.0000      -0.392691       -10.6857 
  41   2.0000      -0.380632       -10.3575 
  42   2.0000      -0.366066        -9.9612 
  43   2.0000      -0.357474        -9.7274 
  44   2.0000      -0.355745        -9.6803 
  45   2.0000      -0.328877        -8.9492 
  46   2.0000      -0.316992        -8.6258 
  47   2.0000      -0.272891        -7.4257 
  48   2.0000      -0.250830        -6.8254 
  49   2.0000      -0.250528        -6.8172 
  50   2.0000      -0.197466        -5.3733 
  51   0.0000      -0.082681        -2.2499 
  52   0.0000      -0.051623        -1.4047 
  53   0.0000      -0.018845        -0.5128 
  54   0.0000       0.020299         0.5524 
  55   0.0000       0.052680         1.4335 
  56   0.0000       0.054370         1.4795 
  57   0.0000       0.062017         1.6876 
  58   0.0000       0.072129         1.9627 
  59   0.0000       0.079316         2.1583 
  60   0.0000       0.088051         2.3960 
  61   0.0000       0.097658         2.6574 
  62   0.0000       0.105628         2.8743 
  63   0.0000       0.111288         3.0283 
  64   0.0000       0.112145         3.0516 
  65   0.0000       0.123438         3.3589 
  66   0.0000       0.134195         3.6516 
  67   0.0000       0.146650         3.9906 
  68   0.0000       0.161396         4.3918 
  69   0.0000       0.175365         4.7719 
  70   0.0000       0.175770         4.7830 
  71   0.0000       0.179010         4.8711 
  72   0.0000       0.180054         4.8995 
  73   0.0000       0.197509         5.3745 
  74   0.0000       0.211773         5.7626 
  75   0.0000       0.213616         5.8128 
  76   0.0000       0.214108         5.8262 
  77   0.0000       0.217573         5.9205 
  78   0.0000       0.221786         6.0351 
  79   0.0000       0.233342         6.3496 
  80   0.0000       0.240324         6.5395 
  81   0.0000       0.243163         6.6168 
  82   0.0000       0.252750         6.8777 
  83   0.0000       0.258077         7.0226 
  84   0.0000       0.262138         7.1331 
  85   0.0000       0.266835         7.2609 
  86   0.0000       0.273176         7.4335 
  87   0.0000       0.276303         7.5186 
  88   0.0000       0.284578         7.7438 
  89   0.0000       0.294868         8.0238 
  90   0.0000       0.299844         8.1592 
  91   0.0000       0.300316         8.1720 
  92   0.0000       0.313347         8.5266 
  93   0.0000       0.314840         8.5672 
  94   0.0000       0.325224         8.8498 
  95   0.0000       0.339009         9.2249 
  96   0.0000       0.343732         9.3534 
  97   0.0000       0.348080         9.4717 
  98   0.0000       0.352416         9.5897 
  99   0.0000       0.355888         9.6842 
 100   0.0000       0.365767         9.9530 
 101   0.0000       0.380777        10.3615 
 102   0.0000       0.387121        10.5341 
 103   0.0000       0.392614        10.6836 
 104   0.0000       0.396917        10.8007 
 105   0.0000       0.401736        10.9318 
 106   0.0000       0.408648        11.1199 
 107   0.0000       0.412823        11.2335 
 108   0.0000       0.429517        11.6877 
 109   0.0000       0.430582        11.7167 
 110   0.0000       0.436284        11.8719 
 111   0.0000       0.442423        12.0389 
 112   0.0000       0.447849        12.1866 
 113   0.0000       0.451905        12.2969 
 114   0.0000       0.466140        12.6843 
 115   0.0000       0.470318        12.7980 
 116   0.0000       0.471629        12.8337 
 117   0.0000       0.478461        13.0196 
 118   0.0000       0.485639        13.2149 
 119   0.0000       0.498544        13.5661 
 120   0.0000       0.498907        13.5760 
 121   0.0000       0.511317        13.9136 
 122   0.0000       0.513397        13.9702 
 123   0.0000       0.520602        14.1663 
 124   0.0000       0.522869        14.2280 
 125   0.0000       0.543613        14.7925 
 126   0.0000       0.546464        14.8700 
 127   0.0000       0.565951        15.4003 
 128   0.0000       0.590398        16.0655 
 129   0.0000       0.594494        16.1770 
 130   0.0000       0.602621        16.3981 
 131   0.0000       0.606973        16.5166 
 132   0.0000       0.612627        16.6704 
 133   0.0000       0.616875        16.7860 
 134   0.0000       0.633103        17.2276 
 135   0.0000       0.648174        17.6377 
 136   0.0000       0.652287        17.7496 
 137   0.0000       0.660393        17.9702 
 138   0.0000       0.680997        18.5309 
 139   0.0000       0.683785        18.6067 
 140   0.0000       0.688843        18.7444 
 141   0.0000       0.689370        18.7587 
 142   0.0000       0.693275        18.8650 
 143   0.0000       0.705492        19.1974 
 144   0.0000       0.709013        19.2932 
 145   0.0000       0.723960        19.6999 
 146   0.0000       0.736029        20.0284 
 147   0.0000       0.739679        20.1277 
 148   0.0000       0.746030        20.3005 
 149   0.0000       0.753477        20.5031 
 150   0.0000       0.759224        20.6595 
 151   0.0000       0.766620        20.8608 
 152   0.0000       0.784383        21.3441 
 153   0.0000       0.787871        21.4390 
 154   0.0000       0.802075        21.8256 
 155   0.0000       0.804044        21.8792 
 156   0.0000       0.805875        21.9290 
 157   0.0000       0.822696        22.3867 
 158   0.0000       0.837731        22.7958 
 159   0.0000       0.844411        22.9776 
 160   0.0000       0.854214        23.2443 
 161   0.0000       0.862437        23.4681 
 162   0.0000       0.867943        23.6179 
 163   0.0000       0.880431        23.9578 
 164   0.0000       0.888541        24.1784 
 165   0.0000       0.901418        24.5288 
 166   0.0000       0.917492        24.9662 
 167   0.0000       0.929243        25.2860 
 168   0.0000       0.933497        25.4017 
 169   0.0000       0.960466        26.1356 
 170   0.0000       0.976716        26.5778 
 171   0.0000       0.978239        26.6192 
 172   0.0000       0.981423        26.7059 
 173   0.0000       0.986614        26.8471 
 174   0.0000       1.012391        27.5486 
 175   0.0000       1.029868        28.0241 
 176   0.0000       1.034173        28.1413 
 177   0.0000       1.051224        28.6053 
 178   0.0000       1.071426        29.1550 
 179   0.0000       1.102439        29.9989 
 180   0.0000       1.119061        30.4512 
 181   0.0000       1.138555        30.9817 
 182   0.0000       1.150623        31.3100 
 183   0.0000       1.152301        31.3557 
 184   0.0000       1.153504        31.3884 
 185   0.0000       1.172939        31.9173 
 186   0.0000       1.182889        32.1880 
 187   0.0000       1.211836        32.9757 
 188   0.0000       1.218858        33.1668 
 189   0.0000       1.225456        33.3464 
 190   0.0000       1.236774        33.6543 
 191   0.0000       1.238065        33.6895 
 192   0.0000       1.261152        34.3177 
 193   0.0000       1.263569        34.3835 
 194   0.0000       1.271171        34.5903 
 195   0.0000       1.288812        35.0704 
 196   0.0000       1.303999        35.4836 
 197   0.0000       1.309428        35.6313 
 198   0.0000       1.322747        35.9938 
 199   0.0000       1.329485        36.1771 
 200   0.0000       1.331058        36.2199 
 201   0.0000       1.348016        36.6814 
 202   0.0000       1.363722        37.1088 
 203   0.0000       1.371340        37.3161 
 204   0.0000       1.404109        38.2078 
 205   0.0000       1.405886        38.2561 
 206   0.0000       1.416453        38.5437 
 207   0.0000       1.428314        38.8664 
 208   0.0000       1.438538        39.1446 
 209   0.0000       1.453259        39.5452 
 210   0.0000       1.453543        39.5529 
 211   0.0000       1.465923        39.8898 
 212   0.0000       1.486108        40.4391 
 213   0.0000       1.490814        40.5671 
 214   0.0000       1.504030        40.9267 
 215   0.0000       1.509928        41.0872 
 216   0.0000       1.523450        41.4552 
 217   0.0000       1.537207        41.8295 
 218   0.0000       1.539051        41.8797 
 219   0.0000       1.542744        41.9802 
 220   0.0000       1.560841        42.4726 
 221   0.0000       1.570633        42.7391 
 222   0.0000       1.583859        43.0990 
 223   0.0000       1.591477        43.3063 
 224   0.0000       1.606804        43.7233 
 225   0.0000       1.624201        44.1967 
 226   0.0000       1.634153        44.4676 
 227   0.0000       1.655908        45.0595 
 228   0.0000       1.658307        45.1248 
 229   0.0000       1.663548        45.2674 
 230   0.0000       1.676114        45.6094 
 231   0.0000       1.679718        45.7074 
 232   0.0000       1.683342        45.8061 
 233   0.0000       1.690078        45.9894 
 234   0.0000       1.699216        46.2380 
 235   0.0000       1.715345        46.6769 
 236   0.0000       1.749872        47.6164 
 237   0.0000       1.758702        47.8567 
 238   0.0000       1.768160        48.1141 
 239   0.0000       1.772932        48.2439 
 240   0.0000       1.786861        48.6230 
 241   0.0000       1.808444        49.2103 
 242   0.0000       1.816857        49.4392 
 243   0.0000       1.831157        49.8283 
 244   0.0000       1.836024        49.9608 
 245   0.0000       1.859216        50.5919 
 246   0.0000       1.865255        50.7562 
 247   0.0000       1.891042        51.4579 
 248   0.0000       1.922615        52.3170 
 249   0.0000       1.944051        52.9003 
 250   0.0000       1.946654        52.9712 
 251   0.0000       1.987206        54.0746 
 252   0.0000       1.990471        54.1635 
 253   0.0000       2.017960        54.9115 
 254   0.0000       2.027973        55.1839 
 255   0.0000       2.060217        56.0613 
 256   0.0000       2.060846        56.0785 
 257   0.0000       2.079404        56.5835 
 258   0.0000       2.094191        56.9858 
 259   0.0000       2.149989        58.5042 
 260   0.0000       2.180786        59.3422 
 261   0.0000       2.209964        60.1362 
 262   0.0000       2.234424        60.8018 
 263   0.0000       2.241291        60.9886 
 264   0.0000       2.256384        61.3993 
 265   0.0000       2.267794        61.7098 
 266   0.0000       2.279124        62.0181 
 267   0.0000       2.292850        62.3916 
 268   0.0000       2.308652        62.8216 
 269   0.0000       2.310968        62.8846 
 270   0.0000       2.324933        63.2647 
 271   0.0000       2.336859        63.5892 
 272   0.0000       2.348722        63.9120 
 273   0.0000       2.351277        63.9815 
 274   0.0000       2.353293        64.0364 
 275   0.0000       2.376316        64.6628 
 276   0.0000       2.386419        64.9378 
 277   0.0000       2.408746        65.5453 
 278   0.0000       2.434340        66.2417 
 279   0.0000       2.437946        66.3399 
 280   0.0000       2.470468        67.2248 
 281   0.0000       2.527826        68.7856 
 282   0.0000       2.545187        69.2581 
 283   0.0000       2.584580        70.3300 
 284   0.0000       2.602246        70.8107 
 285   0.0000       2.611392        71.0596 
 286   0.0000       2.629121        71.5420 
 287   0.0000       2.650413        72.1214 
 288   0.0000       2.662735        72.4567 
 289   0.0000       2.673055        72.7375 
 290   0.0000       2.690732        73.2185 
 291   0.0000       2.695365        73.3446 
 292   0.0000       2.705318        73.6155 
 293   0.0000       2.713772        73.8455 
 294   0.0000       2.717700        73.9524 
 295   0.0000       2.739254        74.5389 
 296   0.0000       2.753023        74.9136 
 297   0.0000       2.790503        75.9334 
 298   0.0000       2.813488        76.5589 
 299   0.0000       2.820120        76.7394 
 300   0.0000       2.842172        77.3394 
 301   0.0000       2.849988        77.5521 
 302   0.0000       2.850271        77.5598 
 303   0.0000       2.866808        78.0098 
 304   0.0000       2.869634        78.0867 
 305   0.0000       2.879687        78.3603 
 306   0.0000       2.888832        78.6091 
 307   0.0000       2.908627        79.1478 
 308   0.0000       2.913814        79.2889 
 309   0.0000       2.929201        79.7076 
 310   0.0000       2.931406        79.7676 
 311   0.0000       2.957454        80.4764 
 312   0.0000       2.958801        80.5131 
 313   0.0000       2.966999        80.7361 
 314   0.0000       2.973905        80.9241 
 315   0.0000       2.993328        81.4526 
 316   0.0000       3.003990        81.7427 
 317   0.0000       3.009332        81.8881 
 318   0.0000       3.031590        82.4938 
 319   0.0000       3.039256        82.7023 
 320   0.0000       3.053220        83.0823 
 321   0.0000       3.053624        83.0933 
 322   0.0000       3.068721        83.5041 
 323   0.0000       3.081216        83.8442 
 324   0.0000       3.090910        84.1079 
 325   0.0000       3.099925        84.3532 
 326   0.0000       3.124266        85.0156 
 327   0.0000       3.131930        85.2242 
 328   0.0000       3.146118        85.6102 
 329   0.0000       3.150664        85.7339 
 330   0.0000       3.161989        86.0421 
 331   0.0000       3.178709        86.4971 
 332   0.0000       3.200877        87.1003 
 333   0.0000       3.213304        87.4384 
 334   0.0000       3.222613        87.6918 
 335   0.0000       3.237869        88.1069 
 336   0.0000       3.243175        88.2513 
 337   0.0000       3.262480        88.7766 
 338   0.0000       3.266678        88.8908 
 339   0.0000       3.276179        89.1494 
 340   0.0000       3.287005        89.4439 
 341   0.0000       3.315489        90.2190 
 342   0.0000       3.332469        90.6811 
 343   0.0000       3.340627        90.9031 
 344   0.0000       3.362909        91.5094 
 345   0.0000       3.377941        91.9184 
 346   0.0000       3.385718        92.1301 
 347   0.0000       3.391458        92.2863 
 348   0.0000       3.407092        92.7117 
 349   0.0000       3.415164        92.9313 
 350   0.0000       3.433224        93.4228 
 351   0.0000       3.441207        93.6400 
 352   0.0000       3.443449        93.7010 
 353   0.0000       3.489146        94.9445 
 354   0.0000       3.510768        95.5328 
 355   0.0000       3.516287        95.6830 
 356   0.0000       3.522347        95.8479 
 357   0.0000       3.547560        96.5340 
 358   0.0000       3.570291        97.1526 
 359   0.0000       3.600690        97.9798 
 360   0.0000       3.625523        98.6555 
 361   0.0000       3.635031        98.9142 
 362   0.0000       3.649890        99.3186 
 363   0.0000       3.661131        99.6244 
 364   0.0000       3.665665        99.7478 
 365   0.0000       3.683680       100.2380 
 366   0.0000       3.714676       101.0815 
 367   0.0000       3.725719       101.3820 
 368   0.0000       3.767456       102.5177 
 369   0.0000       3.782570       102.9290 
 370   0.0000       3.798998       103.3760 
 371   0.0000       3.860228       105.0421 
 372   0.0000       3.872240       105.3690 
 373   0.0000       3.917097       106.5896 
 374   0.0000       3.957174       107.6802 
 375   0.0000       3.976848       108.2155 
 376   0.0000       4.014482       109.2396 
 377   0.0000       4.051328       110.2422 
 378   0.0000       4.071328       110.7865 
 379   0.0000       4.145628       112.8083 
 380   0.0000       4.169968       113.4706 
 381   0.0000       4.243212       115.4637 
 382   0.0000       4.280170       116.4694 
 383   0.0000       4.333799       117.9287 
 384   0.0000       4.354498       118.4919 
 385   0.0000       4.430732       120.5663 
 386   0.0000       4.530539       123.2822 
 387   0.0000       4.587766       124.8394 
 388   0.0000       4.654322       126.6506 
 389   0.0000       4.741545       129.0240 
 390   0.0000       4.810284       130.8945 
 391   0.0000       5.000053       136.0584 
 392   0.0000       5.432468       147.8250 
 393   0.0000       5.572904       151.6464 
 394   0.0000       6.370392       173.3472 
 395   0.0000       6.555940       178.3962 
 396   0.0000       6.656185       181.1240 
 397   0.0000       6.853514       186.4936 
 398   0.0000       6.873155       187.0281 
 399   0.0000      21.622402       588.3755 
 400   0.0000      21.939173       596.9953 
 401   0.0000      22.012676       598.9954 
 402   0.0000      22.199225       604.0716 
 403   0.0000      22.284838       606.4013 
 404   0.0000      22.313751       607.1880 
 405   0.0000      22.380157       608.9950 
 406   0.0000      22.437309       610.5502 
 407   0.0000      22.461539       611.2096 
 408   0.0000      22.590673       614.7235 
 409   0.0000      22.653301       616.4277 
 410   0.0000      22.971247       625.0794 
 411   0.0000      23.462049       638.4348 
 412   0.0000      32.427941       882.4091 
 413   0.0000      43.880557      1194.0507 
------------------
MOLECULAR ORBITALS
------------------
                      0         1         2         3         4         5   
                 -19.08075 -14.38928 -10.24601 -10.24367 -10.23034 -10.21063
                   2.00000   2.00000   2.00000   2.00000   2.00000   2.00000
                  --------  --------  --------  --------  --------  --------
  0C   1s         0.000015  0.000000  0.000001  0.000002  0.001509  0.000011
  0C   2s        -0.000077 -0.000000 -0.000003 -0.000002  0.002146  0.000004
  0C   3s         0.001396  0.000019  0.000232 -0.000233 -0.003066  0.000012
  0C   4s        -0.005716  0.000396 -0.001095  0.003116  0.024645 -0.000484
  0C   5s        -0.010422 -0.003122 -0.006992 -0.008718 -0.031916 -0.010918
  0C   1pz       -0.000004 -0.000000 -0.000004 -0.000000  0.000008  0.000003
  0C   1px        0.000078 -0.000017  0.000156  0.000012 -0.000101 -0.000009
  0C   1py       -0.000070 -0.000010 -0.000011  0.000005  0.000168  0.000082
  0C   2pz        0.000123 -0.000019  0.000066  0.000004 -0.000143 -0.000076
  0C   2px       -0.000543  0.000123 -0.002421  0.001683  0.007609 -0.000838
  0C   2py        0.003444 -0.000533  0.000400  0.001273  0.000705 -0.002944
  0C   3pz        0.000257  0.000199  0.000053  0.000150  0.000184 -0.000073
  0C   3px       -0.002641 -0.001703 -0.002374 -0.002733 -0.012435 -0.003526
  0C   3py        0.006151  0.005008  0.000006  0.002839 -0.002774 -0.004601
  0C   1dz2      -0.000035 -0.000033  0.000041 -0.000042  0.000080 -0.000009
  0C   1dxz       0.000001 -0.000001 -0.000002 -0.000001 -0.000002  0.000001
  0C   1dyz       0.000007  0.000001 -0.000001  0.000001 -0.000005  0.000000
  0C   1dx2y2    -0.000139 -0.000001  0.000026  0.000020  0.000065 -0.000002
  0C   1dxy      -0.000034  0.000019 -0.000091  0.000026 -0.000098  0.000027
  0C   2dz2       0.001122  0.000238 -0.000033 -0.000121 -0.002722 -0.000036
  0C   2dxz       0.000067 -0.000008  0.000079  0.000011 -0.000085 -0.000036
  0C   2dyz      -0.000122 -0.000011  0.000030 -0.000012  0.000179  0.000041
  0C   2dx2y2     0.000886  0.000204 -0.001745  0.000205 -0.000829 -0.000333
  0C   2dxy       0.001338 -0.000391  0.001316  0.000611  0.000016 -0.001299
  1C   1s         0.000003  0.000004 -0.000020  0.000004 -0.000018  0.000030
  1C   2s        -0.000016 -0.000023  0.000016 -0.000002 -0.000009  0.000007
  1C   3s        -0.000493  0.000057 -0.000176  0.000057  0.001028  0.000262
  1C   4s         0.005557  0.001527 -0.003411  0.000085 -0.008640  0.000311
  1C   5s         0.002697  0.005320  0.006416  0.007132  0.018006  0.001069
  1C   1pz       -0.000002  0.000001 -0.000001 -0.000000  0.000002  0.000002
  1C   1px        0.000002  0.000007 -0.000057 -0.000003  0.000057  0.000018
  1C   1py       -0.000059  0.000032 -0.000055 -0.000016  0.000111  0.000060
  1C   2pz        0.000086 -0.000045  0.000046  0.000002 -0.000102 -0.000115
  1C   2px        0.000877  0.001074 -0.000878  0.000242 -0.002234  0.001456
  1C   2py        0.003277 -0.000694  0.000877  0.000197 -0.004670 -0.002630
  1C   3pz        0.000129  0.000086 -0.000030  0.000050 -0.000232 -0.000093
  1C   3px       -0.002248  0.000802  0.002430  0.002206  0.006421  0.001789
  1C   3py        0.002527  0.003238  0.000681  0.002999 -0.002928 -0.001697
  1C   1dz2      -0.000042 -0.000017  0.000027 -0.000003  0.000061 -0.000010
  1C   1dxz       0.000000 -0.000001  0.000001 -0.000000  0.000001 -0.000001
  1C   1dyz       0.000003  0.000001 -0.000001  0.000000 -0.000005 -0.000000
  1C   1dx2y2    -0.000032  0.000010 -0.000011 -0.000006  0.000060  0.000027
  1C   1dxy       0.000036  0.000004  0.000007 -0.000006  0.000008  0.000004
  1C   2dz2      -0.000537 -0.000134  0.000207 -0.000020  0.001039 -0.000011
  1C   2dxz       0.000009 -0.000032  0.000057  0.000003 -0.000009 -0.000056
  1C   2dyz       0.000037  0.000014 -0.000062  0.000009 -0.000064  0.000004
  1C   2dx2y2    -0.000581  0.000262  0.000388 -0.000201  0.000806  0.000737
  1C   2dxy       0.000525 -0.000678  0.001786 -0.000031 -0.000942 -0.001250
  2C   1s         0.000007  0.000010 -0.000014  0.000012 -0.000083  0.000046
  2C   2s        -0.000037 -0.000054  0.000012 -0.000006  0.000033 -0.000011
  2C   3s         0.000664  0.000679 -0.000180  0.000237 -0.001827  0.000539
  2C   4s        -0.001690 -0.001464  0.000255 -0.002137  0.005254  0.001569
  2C   5s         0.004796 -0.011234 -0.007644 -0.016097  0.001796 -0.004453
  2C   1pz        0.000001  0.000001  0.000001 -0.000001 -0.000002  0.000001
  2C   1px        0.000000  0.000013  0.000125 -0.000006 -0.000070  0.000012
  2C   1py        0.000043  0.000039  0.000104 -0.000033 -0.000115  0.000045
  2C   2pz       -0.000009 -0.000048  0.000020  0.000011  0.000039 -0.000073
  2C   2px       -0.000009  0.002162 -0.003739 -0.000661 -0.000974  0.005020
  2C   2py       -0.000286 -0.000036 -0.001914 -0.000107  0.000556  0.001103
  2C   3pz        0.000162  0.000081 -0.000168  0.000014 -0.000448 -0.000047
  2C   3px       -0.002060 -0.005261  0.000740 -0.004534  0.011210  0.001104
  2C   3py        0.003647 -0.001045 -0.004736 -0.002651 -0.006489 -0.000800
  2C   1dz2      -0.000019 -0.000005  0.000035  0.000002 -0.000024 -0.000042
  2C   1dxz      -0.000002 -0.000001  0.000004 -0.000001  0.000001 -0.000002
  2C   1dyz       0.000001  0.000000 -0.000001 -0.000000  0.000002  0.000001
  2C   1dx2y2     0.000012  0.000018 -0.000055  0.000017 -0.000039  0.000035
  2C   1dxy      -0.000032 -0.000023  0.000027 -0.000023  0.000028  0.000013
  2C   2dz2       0.000452  0.000202 -0.000182  0.000033 -0.000409  0.000032
  2C   2dxz       0.000006  0.000036 -0.000097  0.000014 -0.000013  0.000061
  2C   2dyz      -0.000046 -0.000036  0.000018  0.000013  0.000067 -0.000047
  2C   2dx2y2     0.000637  0.000133  0.001141 -0.000526 -0.000985  0.000113
  2C   2dxy       0.000073  0.000968 -0.002061  0.000063 -0.000605  0.001956
  3C   1s        -0.000002  0.000008 -0.000034  0.000002 -0.000002  0.000150
  3C   2s         0.000013 -0.000045 -0.000004  0.000004 -0.000025  0.000090
  3C   3s        -0.000930 -0.000254  0.001130 -0.000120  0.001512  0.000988
  3C   4s         0.006198  0.005402 -0.011121  0.000699 -0.010242  0.001288
  3C   5s        -0.016737 -0.009585  0.061525 -0.028483  0.090555 -0.033668
  3C   1pz       -0.000002  0.000001  0.000002  0.000001  0.000008  0.000000
  3C   1px        0.000034 -0.000001  0.000125 -0.000019 -0.000135  0.000025
  3C   1py       -0.000034  0.000035  0.000140  0.000024  0.000165  0.000032
  3C   2pz        0.000104  0.000109 -0.000251 -0.000043 -0.000296  0.000085
  3C   2px       -0.000852  0.001379 -0.004326  0.000635  0.002808  0.002291
  3C   2py        0.002721  0.004351 -0.010841 -0.000925 -0.007345  0.004192
  3C   3pz       -0.000515 -0.000273  0.000701  0.000074  0.000560 -0.000045
  3C   3px        0.004392 -0.008362  0.001580 -0.022510  0.030715 -0.009022
  3C   3py       -0.013092 -0.014308  0.023079 -0.013273  0.038934 -0.007599
  3C   1dz2      -0.000010 -0.000025  0.000071 -0.000020  0.000040 -0.000040
  3C   1dxz       0.000001  0.000004  0.000002 -0.000001 -0.000002 -0.000001
  3C   1dyz       0.000002 -0.000001 -0.000003  0.000002  0.000001 -0.000002
  3C   1dx2y2    -0.000042 -0.000026 -0.000024 -0.000011 -0.000019  0.000074
  3C   1dxy       0.000002  0.000133 -0.000026 -0.000030 -0.000107  0.000080
  3C   2dz2      -0.000871 -0.000707  0.001424  0.000034  0.001332  0.000127
[...]
------------------------------------------------------------------------------
                        ORCA TD-DFT/TDA CALCULATION
------------------------------------------------------------------------------

Input orbitals are from        ... HBQ-KETO_ESD.gbw
CI-vector output               ... HBQ-KETO_ESD.cis
Tamm-Dancoff approximation     ... operative
CIS-Integral strategy          ... AO-integrals
Integral handling              ... AO integral Direct
Max. core memory used          ... 5000 MB
Reference state                ... RHF
Generation of triplets         ... off
Follow IRoot                   ... off
Number of operators            ... 1
Orbital ranges used for CIS calculation:
 Operator 0:  Orbitals  15... 50  to  51...413
XAS localization array:
 Operator 0:  Orbitals  -1... -1

-------------------
XC-INTEGRATION GRID
-------------------

General Integration Accuracy     IntAcc      ... 3.467
Radial Grid Type                 RadialGrid  ... OptM3 with GC (2021)
Angular Grid (max. ang.)         AngularGrid ... 1 (Lebedev-50)
Angular grid pruning method      GridPruning ... 4 (adaptive)
Weight generation scheme         WeightScheme... Becke
Basis function cutoff            BFCut       ... 1.0000e-11
Integration weight cutoff        WCut        ... 1.0000e-14
Angular grids for H and He will be reduced by one unit
Partially contracted basis set               ... off
Rotationally invariant grid construction     ... off

Total number of grid points                  ...    17633
Total number of batches                      ...      288
Average number of points per batch           ...       61
Average number of grid points per atom       ...      735

---------------------
COSX-INTEGRATION GRID
---------------------

General Integration Accuracy     IntAcc      ... 3.067
Radial Grid Type                 RadialGrid  ... OptM3 with GC (2021)
Angular Grid (max. ang.)         AngularGrid ... 1 (Lebedev-50)
Angular grid pruning method      GridPruning ... 4 (adaptive)
Weight generation scheme         WeightScheme... Becke
Basis function cutoff            BFCut       ... 1.0000e-11
Integration weight cutoff        WCut        ... 1.0000e-14
Angular grids for H and He will be reduced by one unit
Partially contracted basis set               ... on
Rotationally invariant grid construction     ... off

Total number of grid points                  ...     8031
Total number of batches                      ...      141
Average number of points per batch           ...       56
Average number of grid points per atom       ...      335

---------------
TD-DFT XC SETUP
---------------

DFT calculation                         ... on
Name of the grid file                   ... HBQ-KETO_ESD.grid_cis.tmp
Exchange functional (TD-DFT)            ... B88
   X-Alpha parameter    XAlpha (TD-DFT) ...  0.666667
   Becke's b parameter  XBeta (TD-DFT)  ...  0.004200
Correlation functional (TD-DFT)         ... LYP
 LDA part of GGA corr.  LDAOpt (TD-DFT) ... VWN-3
Hybrid DFT                              ... on
   Exchange mixing (TD-DFT)             ...  0.200
   GGA exch. scaling (TD-DFT)           ...  0.720
   GGA corr. scaling (TD-DFT)           ...  0.810

Building densities             ... done
Calculating rho(r) on the grid ... done
Building xc-kernel on the grid ... done
                    *** TD-DFT CALCULATION INITIALIZED ***

-----------------------------
    LR-CPCM (equilibrium)
-----------------------------

Setting up LR-CPCM             ... done

------------------------
DAVIDSON-DIAGONALIZATION
------------------------

Dimension of the eigenvalue problem            ...  13068
Number of roots to be determined               ...      5
Maximum size of the expansion space            ...     50
Maximum number of iterations                   ...    100
Convergence tolerance for the residual         ...    2.500e-07
Convergence tolerance for the energies         ...    2.500e-07
Orthogonality tolerance                        ...    1.000e-14
Level Shift                                    ...    0.000e+00
Constructing the preconditioner                ... o.k.
Building the initial guess                     ... o.k.
Number of trial vectors determined             ...     50


                       ****Iteration    0****

   Memory handling for direct AO based CIS:
   Memory per vector needed      ...     7 MB
   Memory needed                 ...   117 MB
   Memory available              ...  5000 MB
   Number of vectors per batch   ...   637
   Number of batches             ...     1
   Time for densities:            0.019
   Time for RI-J (Direct):        4.486
   Time for K (COSX):            15.421
   Time for XC-Integration:       8.602
   Time for LR-CPCM terms:        6.255
   Time for Sigma-Completion:     0.111
   Size of expansion space: 15
   Lowest Energy          :     0.106794003729
   Maximum Energy change  :     0.165118233373 (vector 4)
   Maximum residual norm  :     0.008030274198

                       ****Iteration    1****
   Time for densities:            0.007
   Time for RI-J (Direct):        3.540
   Time for K (COSX):             8.788
   Time for XC-Integration:       2.594
   Time for LR-CPCM terms:        3.703
   Time for Sigma-Completion:     0.042
   Size of expansion space: 20
   Lowest Energy          :     0.099239474075
   Maximum Energy change  :     0.007622805448 (vector 3)
   Maximum residual norm  :     0.004030357336

                       ****Iteration    2****
   Time for densities:            0.007
   Time for RI-J (Direct):        3.543
   Time for K (COSX):             8.642
   Time for XC-Integration:       2.609
   Time for LR-CPCM terms:        3.711
   Time for Sigma-Completion:     0.014
   Size of expansion space: 25
   Lowest Energy          :     0.098979482910
   Maximum Energy change  :     0.004383685747 (vector 4)
   Maximum residual norm  :     0.000412141223

                       ****Iteration    3****
   Time for densities:            0.007
   Time for RI-J (Direct):        3.547
   Time for K (COSX):             9.025
   Time for XC-Integration:       2.616
   Time for LR-CPCM terms:        3.713
   Time for Sigma-Completion:     0.013
   Size of expansion space: 30
   Lowest Energy          :     0.098965477486
   Maximum Energy change  :     0.000643221194 (vector 4)
   Maximum residual norm  :     0.000042562238

                       ****Iteration    4****
   Time for densities:            0.007
   Time for RI-J (Direct):        3.551
   Time for K (COSX):             8.636
   Time for XC-Integration:       2.653
   Time for LR-CPCM terms:        3.712
   Time for Sigma-Completion:     0.051
   Size of expansion space: 35
   Lowest Energy          :     0.098964505596
   Maximum Energy change  :     0.000044712634 (vector 4)
   Maximum residual norm  :     0.000001612292

                       ****Iteration    5****
   Time for densities:            0.007
   Time for RI-J (Direct):        3.575
   Time for K (COSX):             8.862
   Time for XC-Integration:       2.694
   Time for LR-CPCM terms:        3.736
   Time for Sigma-Completion:     0.197
   Size of expansion space: 40
   Lowest Energy          :     0.098964452619
   Maximum Energy change  :     0.000002702245 (vector 4)
   Maximum residual norm  :     0.000000134554

      *** CONVERGENCE OF RESIDUAL NORM REACHED ***

Storing the converged CI vectors               ... HBQ-KETO_ESD.cis1

                 *** DAVIDSON DONE ***

Total time for solving the CIS problem:   135.405sec

------------------------------------
TD-DFT/TDA EXCITED STATES (SINGLETS)
------------------------------------

the weight of the individual excitations are printed if larger than 1.0e-02

STATE  1:  E=   0.098964 au      2.693 eV    21720.2 cm**-1 <S**2> =   0.000000
    49a ->  52a  :     0.012593 (c= -0.11222015)
    50a ->  51a  :     0.972277 (c=  0.98604114)

STATE  2:  E=   0.122869 au      3.343 eV    26966.6 cm**-1 <S**2> =   0.000000
    49a ->  51a  :     0.031577 (c=  0.17769906)
    50a ->  52a  :     0.939106 (c=  0.96907495)

STATE  3:  E=   0.136050 au      3.702 eV    29859.6 cm**-1 <S**2> =   0.000000
    48a ->  51a  :     0.977533 (c=  0.98870288)
    48a ->  52a  :     0.016924 (c= -0.13009155)

STATE  4:  E=   0.145727 au      3.965 eV    31983.3 cm**-1 <S**2> =   0.000000
    49a ->  51a  :     0.917285 (c=  0.95774991)
    49a ->  53a  :     0.010516 (c=  0.10254609)
    50a ->  52a  :     0.025428 (c= -0.15946245)

STATE  5:  E=   0.157380 au      4.283 eV    34540.9 cm**-1 <S**2> =   0.000000
    47a ->  51a  :     0.061644 (c= -0.24828241)
    49a ->  52a  :     0.056456 (c= -0.23760373)
    50a ->  53a  :     0.832679 (c= -0.91251273)
    50a ->  54a  :     0.015100 (c=  0.12288209)


-----------------------------
TD-DFT/TDA-EXCITATION SPECTRA
-----------------------------

Center of mass = ( -0.0000, -0.0000, -0.0000)
Calculating the Dipole integrals                  ... done
Transforming integrals                            ... done
Calculating the Linear Momentum integrals         ... done
Transforming integrals                            ... done
Calculating angular momentum integrals            ... done
Transforming integrals                            ... done

-----------------------------------------------------------------------------
         ABSORPTION SPECTRUM VIA TRANSITION ELECTRIC DIPOLE MOMENTS
-----------------------------------------------------------------------------
State   Energy    Wavelength  fosc         T2        TX        TY        TZ  
        (cm-1)      (nm)                 (au**2)    (au)      (au)      (au) 
-----------------------------------------------------------------------------
   1   21720.2    460.4   0.400787427   6.07472   2.28695   0.91878  -0.02087
   2   26966.6    370.8   0.091899174   1.12192  -0.83390   0.65192   0.03901
   3   29859.6    334.9   0.000025407   0.00028   0.00119   0.00050  -0.01669
   4   31983.3    312.7   0.093108063   0.95838   0.49125  -0.84596  -0.03748
   5   34540.9    289.5   0.071360875   0.68015  -0.81360  -0.13422   0.01347

-----------------------------------------------------------------------------
         ABSORPTION SPECTRUM VIA TRANSITION VELOCITY DIPOLE MOMENTS
-----------------------------------------------------------------------------
State   Energy    Wavelength   fosc        P2         PX        PY        PZ  
        (cm-1)      (nm)                 (au**2)     (au)      (au)      (au) 
-----------------------------------------------------------------------------
   1   21720.2    460.4   0.089497554   0.01329  -0.10633  -0.04449   0.00086
   2   26966.6    370.8   0.019324861   0.00356   0.05967  -0.00029  -0.00127
   3   29859.6    334.9   0.000225115   0.00005   0.00002  -0.00024   0.00677
   4   31983.3    312.7   0.005421389   0.00119  -0.01098   0.03261   0.00118
   5   34540.9    289.5   0.022754132   0.00537   0.07294   0.00699  -0.00138

-------------------------------------------------------------------
                             CD SPECTRUM
-------------------------------------------------------------------
State  Energy     Wavelength     R         MX        MY        MZ   
       (cm-1)       (nm)     (1e40*cgs)   (au)      (au)      (au)  
-------------------------------------------------------------------
   1   21720.2    460.4      0.02109   0.00991  -0.01431   0.45409
   2   26966.6    370.8     -0.00635   0.00342  -0.00509   0.15789
   3   29859.6    334.9      0.00128  -0.00388   0.03138   0.00050
   4   31983.3    312.7     -0.02713  -0.00022   0.00031  -0.00828
   5   34540.9    289.5     -0.04405  -0.00800   0.01169  -0.37369

-------------------------------------------------------------------
         CD SPECTRUM VIA TRANSITION VELOCITY DIPOLE MOMENTS        
-------------------------------------------------------------------
State  Energy     Wavelength     R         MX        MY        MZ   
       (cm-1)       (nm)     (1e40*cgs)   (au)      (au)      (au)  
-------------------------------------------------------------------
   1   21720.2    460.4      0.13900   0.00991  -0.01431   0.45409
   2   26966.6    370.8     -0.01917   0.00342  -0.00509   0.15789
   3   29859.6    334.9      0.01472  -0.00388   0.03138   0.00050
   4   31983.3    312.7     -0.00871  -0.00022   0.00031  -0.00828
   5   34540.9    289.5     -0.03767  -0.00800   0.01169  -0.37369

Total run time:      137.787 sec

           *** ORCA-CIS/TD-DFT FINISHED WITHOUT ERROR ***

Maximum memory used throughout the entire CIS-calculation: 238.3 MB

-----------------------
CIS/TD-DFT TOTAL ENERGY
-----------------------

    E(SCF)  =   -631.031847836 Eh
    DE(CIS) =      0.098964453 Eh (Root  1)
    ----------------------------- ---------
    E(tot)  =   -630.932883383 Eh


-------------------------   --------------------
FINAL SINGLE POINT ENERGY      -630.932883383234
-------------------------   --------------------


                            ***************************************
                            *     ORCA property calculations      *
                            ***************************************

                                    ---------------------
                                    Active property flags
                                    ---------------------
   (+) Dipole Moment


------------------------------------------------------------------------------
                       ORCA ELECTRIC PROPERTIES CALCULATION
------------------------------------------------------------------------------

Dipole Moment Calculation                       ... on
Quadrupole Moment Calculation                   ... off
Polarizability Calculation                      ... off
GBWName                                         ... HBQ-KETO_ESD.gbw
Electron density                                ... HBQ-KETO_ESD.scfp
The origin for moment calculation is the CENTER OF MASS  = (-0.000000,  0.000000 -0.000000)

-------------
DIPOLE MOMENT
-------------
                                X             Y             Z
Electronic contribution:      1.12684       2.21559       0.04421
Nuclear contribution   :      2.43038      -2.47139      -0.13090
                        -----------------------------------------
Total Dipole Moment    :      3.55722      -0.25580      -0.08668
                        -----------------------------------------
Magnitude (a.u.)       :      3.56746
Magnitude (Debye)      :      9.06776



--------------------
Rotational spectrum 
--------------------
 
Rotational constants in cm-1:     0.039794     0.018816     0.012775 
Rotational constants in MHz :  1193.006885   564.084837   382.994882 

 Dipole components along the rotational axes: 
x,y,z [a.u.] :     3.123896    -1.722794    -0.000474 
x,y,z [Debye]:     7.940314    -4.378995    -0.001206 

 

------------------------------------------------------------------------------
                           ORCA EXCITED STATE DYNAMICS
------------------------------------------------------------------------------

Requested calculation:				...fluorescence
Coordinate system:				...Deloc. Internal (BAKER)
Lineshape function:				...Voigt
Excited state PES:				...adiabatic hessian
Apply Duschinky rotation:			...no
Use operator derivatives:			...yes
Convert derivatives between states:		...no
Use same frequencies:				...no
Multiroot calculation:				...no
Single mode calculation:			...no
Selected mode calculation:			...no

Ground state hessian:				HBQ-KETO_GS.hess
Reading ground state hessian:			...done
Excited state hessian:				HBQ-KETO_ES.hess
Reading excited state hessian:			...done

As an ES Hessian was given, HessFlag is now AH!
Adjusting all geometries to center of mass:	...done
Rotating the excited state geometry:		...done
The RMSD is:	0.057803

Writting GS hessian to:				HBQ-KETO_ESD.GS.hess
Writting ES hessian to:				HBQ-KETO_ESD.ES.hess
Calculating Wilson`s B Matrix:			...done
Converting to internal coordinates:		...done
Calculating rotation matrix J:			...done
Calculating displacement vector K:		...done
The sum of K*K is:				2.613303

Calculating energy of the ES at its geometry:	...done
Checking for transition data:			...done
Computing transition dipole derivatives		...

		<<Displacing mode 1 (+)>>
		<<Displacing mode 2 (+)>>
		<<Displacing mode 3 (+)>>
		<<Displacing mode 4 (+)>>
		<<Displacing mode 5 (+)>>
		<<Displacing mode 6 (+)>>
		<<Displacing mode 7 (+)>>
		<<Displacing mode 8 (+)>>
		<<Displacing mode 9 (+)>>
		<<Displacing mode 10 (+)>>
		<<Displacing mode 11 (+)>>
		<<Displacing mode 12 (+)>>
		<<Displacing mode 13 (+)>>
		<<Displacing mode 14 (+)>>
		<<Displacing mode 15 (+)>>
		<<Displacing mode 16 (+)>>
		<<Displacing mode 17 (+)>>
		<<Displacing mode 18 (+)>>
		<<Displacing mode 19 (+)>>
		<<Displacing mode 20 (+)>>
		<<Displacing mode 21 (+)>>
		<<Displacing mode 22 (+)>>
		<<Displacing mode 23 (+)>>
		<<Displacing mode 24 (+)>>
		<<Displacing mode 25 (+)>>
		<<Displacing mode 26 (+)>>
		<<Displacing mode 27 (+)>>
		<<Displacing mode 28 (+)>>
		<<Displacing mode 29 (+)>>
		<<Displacing mode 30 (+)>>
		<<Displacing mode 31 (+)>>
		<<Displacing mode 32 (+)>>
		<<Displacing mode 33 (+)>>
		<<Displacing mode 34 (+)>>
		<<Displacing mode 35 (+)>>
		<<Displacing mode 36 (+)>>
		<<Displacing mode 37 (+)>>
		<<Displacing mode 38 (+)>>
		<<Displacing mode 39 (+)>>
		<<Displacing mode 40 (+)>>
		<<Displacing mode 41 (+)>>
		<<Displacing mode 42 (+)>>
		<<Displacing mode 43 (+)>>
		<<Displacing mode 44 (+)>>
		<<Displacing mode 45 (+)>>
		<<Displacing mode 46 (+)>>
		<<Displacing mode 47 (+)>>
		<<Displacing mode 48 (+)>>
		<<Displacing mode 49 (+)>>
		<<Displacing mode 50 (+)>>
		<<Displacing mode 51 (+)>>
		<<Displacing mode 52 (+)>>
		<<Displacing mode 53 (+)>>
		<<Displacing mode 54 (+)>>
		<<Displacing mode 55 (+)>>
		<<Displacing mode 56 (+)>>
		<<Displacing mode 57 (+)>>
		<<Displacing mode 58 (+)>>
		<<Displacing mode 59 (+)>>
		<<Displacing mode 60 (+)>>
		<<Displacing mode 61 (+)>>
		<<Displacing mode 62 (+)>>
		<<Displacing mode 63 (+)>>
		<<Displacing mode 64 (+)>>
		<<Displacing mode 65 (+)>>
		<<Displacing mode 66 (+)>>

Final check on derivatives:			...done
Writting GS hessian to:				HBQ-KETO_ESD.GS.hess
Writting ES hessian to:				HBQ-KETO_ESD.ES.hess

          ***Everything is set, now computing the correlation function***

Homogeneous linewidth is:			50.00 cm-1
Inhomogeneous linewidth is:			200.00 cm-1
Number of points:				131072
Maximum time:					1592.65 fs
Spectral resolution:				3.33 cm-1
Temperature used:				298.15 K
Z value:					3.476962e-82
Cutoff for the correlation function:		1.00e-06
Adiabatic energy difference:			19994.39 cm-1
0-0 energy difference:				19408.31 cm-1
Reference transition dipole (x,y,z):		(2.28695 0.00000),
                                    		(0.91878 0.00000),
                                    		(-0.02087 0.00000) 
Calculating correlation function:		...done
Last element of the correlation function:	0.000000,0.000000
Computing the Fourier Transform:		...done

The calculated fluorescence rate constant is	1.124824e+08 s-1*
with 98.71% from FC and 1.29% from HT

*The rate is multiplied by the square of the refractive index

The fluorescence spectrum was saved in		HBQ-KETO_ESD.spectrum

Total run time: 11 hours 16 minutes 19 seconds

                      ****ORCA ESD FINISHED WITHOUT ERROR****

Timings for individual modules:

Sum of individual times         ...    41107.650 sec (= 685.128 min)
GTO integral calculation        ...        6.302 sec (=   0.105 min)   0.0 %
SCF iterations                  ...      382.660 sec (=   6.378 min)   0.9 %
CIS module                      ...      138.389 sec (=   2.306 min)   0.3 %
ESD module                      ...    40580.299 sec (= 676.338 min)  98.7 %
                             ****ORCA TERMINATED NORMALLY****
TOTAL RUN TIME: 0 days 11 hours 25 minutes 10 seconds 748 msec
