
                                 *****************
                                 * O   R   C   A *
                                 *****************

                                            #,                                       
                                            ###                                      
                                            ####                                     
                                            #####                                    
                                            ######                                   
                                           ########,                                 
                                     ,,################,,,,,                         
                               ,,#################################,,                 
                          ,,##########################################,,             
                       ,#########################################, ''#####,          
                    ,#############################################,,   '####,        
                  ,##################################################,,,,####,       
                ,###########''''           ''''###############################       
              ,#####''   ,,,,##########,,,,          '''####'''          '####       
            ,##' ,,,,###########################,,,                        '##       
           ' ,,###''''                  '''############,,,                           
         ,,##''                                '''############,,,,        ,,,,,,###''
      ,#''                                            '''#######################'''  
     '                                                          ''''####''''         
             ,#######,   #######,   ,#######,      ##                                
            ,#'     '#,  ##    ##  ,#'     '#,    #''#        ,####,   ,####,        
            ##       ##  ##   ,#'  ##            #'  '#       #'       #'  '#        
            ##       ##  #######   ##           ,######,      #####,   #    #        
            '#,     ,#'  ##    ##  '#,     ,#' ,#      #,     #,   #   #,  ,#        
             '#######'   ##     ##  '#######'  #'      '#     '####' # '####'        



                #########################################################
                #                        -***-                          #
                #          Department of theory and spectroscopy        #
                #                                                       #
                #                      Frank Neese                      #
                #                                                       #
                #     Directorship, Architecture, Infrastructure        #
                #                    SHARK, DRIVERS                     #
                #        Core code/Algorithms in most modules           #
                #                                                       #
                #        Max Planck Institute fuer Kohlenforschung      #
                #                Kaiser Wilhelm Platz 1                 #
                #                 D-45470 Muelheim/Ruhr                 #
                #                      Germany                          #
                #                                                       #
                #                  All rights reserved                  #
                #                        -***-                          #
                #########################################################


                         Program Version 6.0.1  -  RELEASE   -


 With contributions from (in alphabetic order):
[Max-Planck-Institut fuer Kohlenforschung]                               
  Daniel Aravena         : Magnetic Suceptibility                        
  Michael Atanasov       : Ab Initio Ligand Field Theory (pilot matlab implementation)
  Alexander A. Auer      : GIAO ZORA, VPT2 properties, NMR spectrum      
  Ute Becker             : All parallelization in ORCA, NUMFREQ, NUMCALC 
  Giovanni Bistoni       : ED, misc. LED, open-shell LED, HFLD           
  Martin Brehm           : Molecular dynamics                            
  Dmytro Bykov           : pre 5.0 version of the SCF Hessian            
  Marcos Casanova-Páez   : Triplet and SCS-CIS(D). UHF-(DLPNO)-IP/EA/STEOM-CCSD. UHF-CVS-IP/STEOM-CCSD   
  Vijay G. Chilkuri      : MRCI spin determinant printing, contributions to CSF-ICE 
  Pauline Colinet        : FMM embedding                                 
  Dipayan Datta          : RHF DLPNO-CCSD density                        
  Achintya Kumar Dutta   : EOM-CC, STEOM-CC                              
  Nicolas Foglia         : Exact transition moments, OPA infrastructure, MCD improvements    
  Dmitry Ganyushin       : Spin-Orbit,Spin-Spin,Magnetic field MRCI      
  Miquel Garcia-Rates    : C-PCM and meta-GGA Hessian, CCSD/C-PCM, Gaussian charge scheme 
  Tiago L. C. Gouveia    : GS-ROHF, GS-ROCIS                             
  Yang Guo               : DLPNO-NEVPT2, F12-NEVPT2, CIM, IAO-localization        
  Andreas Hansen         : Spin unrestricted coupled pair/coupled cluster methods 
  Ingolf Harden          : AUTO-CI MPn and infrastructure                
  Benjamin Helmich-Paris : MC-RPA, TRAH-(SCF,CASSCF), AVAS, COSX integrals, SCF dyn. polar. 
  Lee Huntington         : MR-EOM, pCC                                   
  Robert Izsak           : Overlap fitted RIJCOSX, COSX-SCS-MP3, EOM     
  Riya Kayal             : Wick's Theorem for AUTO-CI, AUTO-CI UHF-CCSDT 
  Emily Kempfer          : AUTO-CI, RHF CISDT and CCSDT                  
  Christian Kollmar      : KDIIS, OOCD, Brueckner-CCSD(T), CCSD density, CASPT2, CASPT2-K, improved NEVPT2 
  Axel Koslowski         : Symmetry handling                             
  Simone Kossmann        : meta-GGA functionals, TD-DFT gradient, OOMP2, (MP2 Hessian; deprecated post 5.0) 
  Lucas Lang             : DCDCAS                                        
  Marvin Lechner         : AUTO-CI (C++ implementation), FIC-MRCC        
  Spencer Leger          : CASSCF response                               
  Dagmar Lenk            : GEPOL surface, SMD, ORCA-2-JSON               
  Dimitrios Liakos       : Extrapolation schemes; Compound Job, initial MDCI parallelization 
  Dimitrios Manganas     : Further ROCIS development; embedding schemes. LFT, Crystal Embedding 
  Dimitrios Pantazis     : SARC Basis sets                               
  Anastasios Papadopoulos: AUTO-CI, single reference methods and gradients 
  Taras Petrenko         : pre 6.0 DFT Hessian and TD-DFT gradient, (ASA, deprecated), ECA, 1-Electron XAS/XES, NRVS 
  Peter Pinski           : DLPNO-MP2, DLPNO-MP2 Gradient                 
  Christoph Reimann      : Effective Core Potentials                     
  Marius Retegan         : Local ZFS, SOC                                
  Christoph Riplinger    : Optimizer, TS searches, QM/MM, DLPNO-CCSD(T), (RO)-DLPNO pert. Triples 
  Michael Roemelt        : Original ROCIS implementation                 
  Masaaki Saitow         : Open-shell DLPNO-CCSD energy and density      
  Barbara Sandhoefer     : DKH picture change effects                    
  Kantharuban Sivalingam : CASSCF convergence/infrastructure, NEVPT2 and variants, FIC-MRCI 
  Bernardo de Souza      : ESD, SOC TD-DFT                               
  Georgi L. Stoychev     : AutoAux, RI-MP2 NMR, DLPNO-MP2 response, X2C  
  Van Anh Tran           : RI-MP2 g-tensors                              
  Willem Van den Heuvel  : Paramagnetic NMR                              
  Zikuan Wang            : NOTCH, Electric field optimization            
  Frank Wennmohs         : Technical directorship and infrastructure     
  Hang Xu                : AUTO-CI-Response properties                   
                                                                         
[FACCTs GmbH]                                                            
  Markus Bursch, Miquel Garcia-Rates, Christoph Riplinger, Bernardo de Souza, Georgi L. Stoychev 
                                                                 
  APM, Basis sets (HGBS, AHGBS, def-TZVP (Ac-Lr), def2-XVPD (La-Lu)), CI-OPT, improved COSX, DLPNO-Multilevel,           
  DOCKER, DRACO, updates on ESD, GOAT, IRC, LR-CPCM, MBIS, meta-GGA TD-DFT gradient, ML-optimized integration grids, 
  MM, NACMEs, nearIR, NEB, NEB-TS, NL-DFT gradient (VV10), 2- and 3-layer-ONIOM, interface openCOSMO-RS, QMMM,   
  Crystal-QMMM, SF, symmetry and pop. for TD-DFT, r2SCAN hybrids, SOLVATOR                                   
                                                                         
[Other institutions]                                                     
  V. Asgeirsson          : NEB                                           
  Christoph Bannwarth    : sTDA-DFT, sTD-DFT, PBEh-3c, B97-3c, D3        
  Sebastian Ehlert       : rSCAN, r2SCAN, r2SCAN-3c, D4, dhf basis sets  
  Marvin Friede          : D4 for Fr, Ra, Ac-Lr                          
  Lars Goerigk           : TD-DFT with DH, B97 family of functionals     
  Stefan Grimme          : VdW corrections, initial TS optimization, DFT functionals, gCP, sTDA/sTD-DF 
  Waldemar Hujo          : DFT-NL                                        
  H. Jonsson             : NEB                                           
  Holger Kruse           : gCP                                           
  Marcel Mueller         : wB97X-3c, vDZP basis set                      
  Hagen Neugebauer       : wr2SCAN                                       
  Tobias Risthaus        : range-separated hybrid DFT                    
  Lukas Wittmann         : regularized MP2, r2SCAN double-hybrids, wr2SCAN        
                                                                         
We gratefully acknowledge several colleagues who have allowed us to      
interface, adapt or use parts of their codes:                            
  Ed Valeev, F. Pavosevic, A. Kumar             : LibInt (2-el integral package), F12 methods 
  Garnet Chan, S. Sharma, J. Yang, R. Olivares  : DMRG                   
  Ulf Ekstrom                                   : XCFun DFT Library      
  Mihaly Kallay                                 : mrcc  (arbitrary order and MRCC methods)
  Frank Weinhold                                : gennbo (NPA and NBO analysis)           
  Simon Mueller                                 : openCOSMO-RS                            
  Christopher J. Cramer and Donald G. Truhlar   : smd solvation model                     
  S Lehtola, MJT Oliveira, MAL Marques          : LibXC Library                           
  Liviu Ungur et al                             : ANISO software                          


 Your calculation uses the libint2 library for the computation of 2-el integrals
 For citations please refer to: http://libint.valeyev.net

 Your ORCA version has been built with support for libXC version: 6.2.2
 For citations please refer to: https://libxc.gitlab.io

 This ORCA versions uses:
   CBLAS   interface :  Fast vector & matrix operations
   LAPACKE interface :  Fast linear algebra routines
   SCALAPACK package :  Parallel linear algebra routines
   Shared memory     :  Shared parallel matrices
   BLAS/LAPACK       :  OpenBLAS 0.3.27  USE64BITINT DYNAMIC_ARCH NO_AFFINITY Cooperlake SINGLE_THREADED
        Core in use  :  Cooperlake
   Copyright (c) 2011-2014, The OpenBLAS Project


Warning: RI is on but no J-basis has been assigned. Assigning Def2/J (nothing to worry about!)
================================================================================

----- Orbital basis set information -----
Your calculation utilizes the basis: 6-311G*
   H, Li - Ne  : R. Krishnan, J. S. Binkley, R. Seeger and J. A. Pople, J. Chem. Phys. 72, 650 (1980).
   Na - Ar     : A. D. McLean and G. S. Chandler J. Chem. Phys. 72, 5639, (1980).
   K  - Ca     : J.-P. Blaudeau, M. P. McGrath, L. A. Curtiss and L. Radom, J. Chem. Phys. 107, 5016 (1997).
   Ga - Kr     : L. A. Curtiss, M. P. McGrath, J.-P. Blandeau, N. E. Davis, R. C. Binning and L. Radom, J. Chem. Phys. 103, 6104 (1995).
   Pol./Diff.
   H, Li - Cl  : T. Clark, J. Chandrasekhar and P. v. R. Schleyer, J. Comp. Chem. 4, 294 (1983).
   H - Ne      : M. J. Frisch, J. A. Pople and J. S. Binkley, J. Chem. Phys. 80, 3265 (1984).

----- AuxJ basis set information -----
Your calculation utilizes the auxiliary basis: def2/J
   F. Weigend, Phys. Chem. Chem. Phys. 8, 1057 (2006).

================================================================================
                                        WARNINGS
                       Please study these warnings very carefully!
================================================================================

INFO   : Checking CIS options ...

WARNING: (CIS/TDDFT): Analytic excited state gradients requested
  ===> : turning on equilibrium dielectric conditions.

WARNING: Analytical Frequencies for this method not available!
  ===> : Switching to Numerical Frequencies!

WARNING: Geometry Optimization
  ===> : Switching off AutoStart
         For restart on a previous wavefunction, please use MOREAD

WARNING: CIS/ROCIS methods need fully converged wavefunctions
  ===> : Setting SCFConvForced true
         You can overwrite this default with %scf ConvForced false 


================================================================================
                                       INPUT FILE
================================================================================
NAME = 4.inp
|  1> ! B3LYP/G OPT FREQ 6-311G* CPCM(Water)
|  2> 
|  3> %tddft
|  4>     NRoots 3
|  5>     IRoot 1
|  6> end 
|  7> 
|  8> * xyz 0 1 
|  9> C  -3.18242921420300728386 -0.60959024614772738815 -0.45214383816838443764
| 10> C  -2.68401153932855063289 -1.69150722546884058062 -1.17544888140915748664
| 11> C  -1.33833918745468283262 -1.79567972791638252872 -1.41110855265750045895
| 12> C  -2.32924168827839173090 0.35571887647971434099 0.03705485095563831877
| 13> C  -0.93713794559481733426 0.28485426981392980572 -0.19580983605881729925
| 14> O  -2.82738601832599378838 1.44807124405659726207 0.72194219468977838261
| 15> C  -0.44859966139613938196 -0.82037823029805601038 -0.93358493714983259437
| 16> C  0.94944108987521969034 -0.94722573061256554183 -1.18088734858151012119
| 17> C  1.83222110116333225527 -0.03494616365571223682 -0.71711864283009885135
| 18> C  0.00060585682237968008 1.26932592205442262845 0.28392351520169240020
| 19> C  1.38366705430454106640 1.09145379435262790402 0.02560288802298105182
| 20> N  -0.44698806679870606295 2.33611600609268954543 0.96302454330466913390
| 21> C  0.41097264709996839116 3.22061270653957887333 1.40966863174875767228
| 22> C  1.79264714414419867872 3.13173270887632604342 1.22060161479310869126
| 23> C  2.27693932172915047829 2.05696655806406569766 0.51709894219014029826
| 24> C  -3.67864077016141166609 1.26850860545051480344 1.76266480524833135668
| 25> O  -4.04562466971418110973 0.16839804632180332966 2.15455571137362777989
| 26> N  -4.04923901345476000557 2.42920264537170993435 2.30925210582896545120
| 27> C  -5.00721736117357796303 2.45098129143520759854 3.39200096768906966815
| 28> C  -3.57058717409049730662 3.71530742303269345683 1.84988229015689120693
| 29> H  -4.31442462146782990118 4.19091351042458892806 1.20811095481485875069
| 30> H  -2.64380462023206597166 3.58133895310509320353 1.29883290757590175168
| 31> H  -3.39178822571516924711 4.34627310625726792637 2.71878111425922597277
| 32> H  -5.31711449047322481931 1.43037922223307356617 3.60627294623135519203
| 33> H  -5.87505432921247106037 3.04422057761557063316 3.10257861452460925733
| 34> H  -4.55273392159281709013 2.88596934017064832290 4.28253543114068868647
| 35> H  -0.94241583899219738552 -2.63115192412242349107 -1.96720812919462395563
| 36> H  -4.24059600204830111636 -0.52423973417050651058 -0.25891885480463627811
| 37> H  -3.36876285684505960560 -2.43791287409286239196 -1.54533282258097748318
| 38> H  1.28351420201211152694 -1.80204970314123569253 -1.74858610786598700493
| 39> H  2.89172022432389130842 -0.13635134779372726221 -0.89887872434372106945
| 40> H  -0.02292274570719499138 4.05242659884339850862 1.94874495423721416643
| 41> H  2.44690625689625917971 3.89223892928653425471 1.61473902475615815888
| 42> H  3.33458507121432123910 1.93785257869217142357 0.33153766651245142327
| 43> *
| 44> 
| 45>                          ****END OF INPUT****
================================================================================

                       *****************************
                       * Geometry Optimization Run *
                       *****************************

Geometry optimization settings:
Update method            Update   .... BFGS
Choice of coordinates    CoordSys .... (2022) Redundant Internals
Initial Hessian          InHess   .... Almloef's Model
Max. no of cycles        MaxIter  .... 102

Convergence Tolerances:
Energy Change            TolE     ....  5.0000e-06 Eh
Max. Gradient            TolMAXG  ....  3.0000e-04 Eh/bohr
RMS Gradient             TolRMSG  ....  1.0000e-04 Eh/bohr
Max. Displacement        TolMAXD  ....  4.0000e-03 bohr
RMS Displacement         TolRMSD  ....  2.0000e-03 bohr
Strict Convergence                .... False

------------------------------------------------------------------------------
                        ORCA OPTIMIZATION COORDINATE SETUP
------------------------------------------------------------------------------

The optimization will be done in redundant internal coordinates (2022)
Making redundant internal coordinates   ...  (2022 redundants) done
Evaluating the initial hessian          ...  (Almloef) done
Evaluating the coordinates              ...  done
Calculating the B-matrix                .... done
Calculating the G-matrix                .... done
Diagonalizing the G-matrix              .... done
Small eigenvalue found = 2.763e-03
Small eigenvalue found = 9.001e-03
Small eigenvalue found = 1.411e-02
Small eigenvalue found = 2.455e-02
The first mode is                       ....   77
The number of degrees of freedom        ....   96

    -----------------------------------------------------------------
                    Redundant Internal Coordinates


    -----------------------------------------------------------------
         Definition                    Initial Value    Approx d2E/dq
    -----------------------------------------------------------------
      1. B(C   1,C   0)                  1.3936         0.616577   
      2. B(C   2,C   1)                  1.3701         0.672141   
      3. B(C   3,C   0)                  1.3781         0.652797   
      4. B(C   4,C   3)                  1.4132         0.573703   
      5. B(O   5,C   3)                  1.3822         0.575883   
      6. B(C   6,C   4)                  1.4158         0.568275   
      7. B(C   6,C   2)                  1.4039         0.593737   
      8. B(C   7,C   6)                  1.4254         0.548604   
      9. B(C   8,C   7)                  1.3515         0.719637   
     10. B(C   9,C   4)                  1.4418         0.516592   
     11. B(C  10,C   9)                  1.4182         0.563357   
     12. B(C  10,C   8)                  1.4218         0.555839   
     13. B(N  11,C   9)                  1.3415         0.668792   
     14. B(C  12,N  11)                  1.3107         0.748861   
     15. B(C  13,C  12)                  1.3974         0.608085   
     16. B(C  14,C  13)                  1.3728         0.665551   
     17. B(C  14,C  10)                  1.4042         0.593085   
     18. B(C  15,O   5)                  1.3565         0.632977   
     19. B(O  16,C  15)                  1.2241         1.029218   
     20. B(N  17,C  15)                  1.3354         0.683873   
     21. B(C  18,N  17)                  1.4459         0.455761   
     22. B(C  19,N  17)                  1.4471         0.453653   
     23. B(H  20,C  19)                  1.0915         0.358125   
     24. B(H  21,C  19)                  1.0865         0.364731   
     25. B(H  22,C  19)                  1.0886         0.361943   
     26. B(H  23,C  18)                  1.0879         0.362858   
     27. B(H  24,C  18)                  1.0903         0.359652   
     28. B(H  25,C  18)                  1.0903         0.359663   
     29. B(H  26,C   2)                  1.0789         0.375093   
     30. B(H  27,C   0)                  1.0790         0.374888   
     31. B(H  28,C   1)                  1.0783         0.375858   
     32. B(H  29,C   7)                  1.0792         0.374714   
     33. B(H  30,C   8)                  1.0797         0.373919   
     34. B(H  31,C  12)                  1.0820         0.370803   
     35. B(H  32,C  13)                  1.0779         0.376532   
     36. B(H  33,C  14)                  1.0804         0.373044   
     37. A(C   1,C   0,C   3)          120.4399         0.437678   
     38. A(C   3,C   0,H  27)          119.2201         0.358449   
     39. A(C   1,C   0,H  27)          120.3363         0.354990   
     40. A(C   2,C   1,H  28)          120.8004         0.360395   
     41. A(C   0,C   1,C   2)          119.9711         0.439990   
     42. A(C   0,C   1,H  28)          119.2284         0.355146   
     43. A(C   1,C   2,H  26)          120.5277         0.360270   
     44. A(C   1,C   2,C   6)          120.7397         0.437005   
     45. A(C   6,C   2,H  26)          118.7325         0.352760   
     46. A(C   4,C   3,O   5)          118.4435         0.419696   
     47. A(C   0,C   3,C   4)          121.0810         0.432037   
     48. A(C   0,C   3,O   5)          120.4218         0.429506   
     49. A(C   3,C   4,C   9)          123.4786         0.414340   
     50. A(C   3,C   4,C   6)          117.7044         0.421438   
     51. A(C   6,C   4,C   9)          118.8158         0.413641   
     52. A(C   3,O   5,C  15)          120.1143         0.424356   
     53. A(C   4,C   6,C   7)          119.8885         0.418089   
     54. A(C   2,C   6,C   7)          120.0509         0.421370   
     55. A(C   2,C   6,C   4)          120.0584         0.424031   
     56. A(C   6,C   7,H  29)          117.7349         0.348023   
     57. A(C   6,C   7,C   8)          121.4014         0.436156   
     58. A(C   8,C   7,H  29)          120.8629         0.364431   
     59. A(C   7,C   8,H  30)          121.3165         0.364299   
     60. A(C  10,C   8,H  30)          118.1573         0.348668   
     61. A(C   7,C   8,C  10)          120.5261         0.437187   
     62. A(C   4,C   9,C  10)          119.2130         0.413003   
     63. A(C  10,C   9,N  11)          121.1545         0.429677   
     64. A(C   4,C   9,N  11)          119.6324         0.423060   
     65. A(C   9,C  10,C  14)          118.0605         0.423289   
     66. A(C   8,C  10,C  14)          121.7948         0.422274   
     67. A(C   8,C  10,C   9)          120.1440         0.418418   
     68. A(C   9,N  11,C  12)          119.3899         0.449358   
     69. A(N  11,C  12,H  31)          115.2180         0.363983   
     70. A(N  11,C  12,C  13)          123.9313         0.444605   
     71. A(C  13,C  12,H  31)          120.8505         0.353500   
     72. A(C  12,C  13,H  32)          120.3862         0.354419   
     73. A(C  12,C  13,C  14)          117.9010         0.438111   
     74. A(C  14,C  13,H  32)          121.7119         0.359900   
     75. A(C  10,C  14,H  33)          119.1328         0.352368   
     76. A(C  10,C  14,C  13)          119.5561         0.436143   
     77. A(C  13,C  14,H  33)          121.3111         0.359330   
     78. A(O  16,C  15,N  17)          124.5329         0.478210   
     79. A(O   5,C  15,N  17)          111.9090         0.437658   
     80. A(O   5,C  15,O  16)          123.5539         0.471457   
     81. A(C  18,N  17,C  19)          116.3258         0.383963   
     82. A(C  15,N  17,C  19)          123.4174         0.412338   
     83. A(C  15,N  17,C  18)          120.2301         0.412678   
     84. A(H  24,C  18,H  25)          109.3603         0.290727   
     85. A(H  23,C  18,H  25)          109.3984         0.291133   
     86. A(N  17,C  18,H  25)          109.9662         0.333059   
     87. A(H  23,C  18,H  24)          109.6319         0.291131   
     88. A(N  17,C  18,H  24)          109.6803         0.333058   
     89. A(N  17,C  18,H  23)          108.7895         0.333548   
     90. A(H  21,C  19,H  22)          109.6440         0.291658   
     91. A(H  20,C  19,H  22)          109.1886         0.290821   
     92. A(N  17,C  19,H  22)          108.4254         0.333152   
     93. A(H  20,C  19,H  21)          109.6831         0.291172   
     94. A(N  17,C  19,H  21)          109.4840         0.333577   
     95. A(N  17,C  19,H  20)          110.3948         0.332567   
     96. D(H  28,C   1,C   0,C   3)    179.7229         0.026289   
     97. D(C   2,C   1,C   0,C   3)     -0.4050         0.026289   
     98. D(H  28,C   1,C   0,H  27)      0.4318         0.026289   
     99. D(C   2,C   1,C   0,H  27)   -179.6960         0.026289   
    100. D(C   6,C   2,C   1,C   0)     -0.1289         0.031611   
    101. D(H  26,C   2,C   1,C   0)    179.7980         0.031611   
    102. D(C   6,C   2,C   1,H  28)    179.7412         0.031611   
    103. D(H  26,C   2,C   1,H  28)     -0.3319         0.031611   
    104. D(O   5,C   3,C   0,C   1)    178.1740         0.029689   
    105. D(C   4,C   3,C   0,H  27)   -179.8205         0.029689   
    106. D(C   4,C   3,C   0,C   1)      0.8805         0.029689   
    107. D(O   5,C   3,C   0,H  27)     -2.5271         0.029689   
    108. D(C   6,C   4,C   3,O   5)   -178.1435         0.022590   
    109. D(C   9,C   4,C   3,C   0)    179.5980         0.022590   
    110. D(C   9,C   4,C   3,O   5)      2.2523         0.022590   
    111. D(C   6,C   4,C   3,C   0)     -0.7977         0.022590   
    112. D(C  15,O   5,C   3,C   4)   -130.9991         0.024100   
    113. D(C  15,O   5,C   3,C   0)     51.6371         0.024100   
    114. D(C   7,C   6,C   4,C   9)      0.4250         0.022147   
    115. D(C   7,C   6,C   4,C   3)   -179.1983         0.022147   
    116. D(C   2,C   6,C   4,C   9)    179.8873         0.022147   
    117. D(C   2,C   6,C   4,C   3)      0.2641         0.022147   
    118. D(C   7,C   6,C   2,H  26)     -0.2764         0.024275   
    119. D(C   7,C   6,C   2,C   1)    179.6518         0.024275   
    120. D(C   4,C   6,C   2,H  26)   -179.7379         0.024275   
    121. D(C   4,C   6,C   2,C   1)      0.1903         0.024275   
    122. D(H  29,C   7,C   6,C   4)   -179.8788         0.020585   
    123. D(H  29,C   7,C   6,C   2)      0.6589         0.020585   
    124. D(C   8,C   7,C   6,C   4)      0.4481         0.020585   
    125. D(C   8,C   7,C   6,C   2)   -179.0142         0.020585   
    126. D(C  10,C   8,C   7,C   6)     -0.5861         0.036650   
    127. D(H  30,C   8,C   7,H  29)     -0.1321         0.036650   
    128. D(H  30,C   8,C   7,C   6)    179.5309         0.036650   
    129. D(C  10,C   8,C   7,H  29)    179.7510         0.036650   
    130. D(N  11,C   9,C   4,C   6)    178.7527         0.018195   
    131. D(N  11,C   9,C   4,C   3)     -1.6472         0.018195   
    132. D(C  10,C   9,C   4,C   6)     -1.1388         0.018195   
    133. D(C  10,C   9,C   4,C   3)    178.4613         0.018195   
    134. D(C  14,C  10,C   9,N  11)      0.8262         0.021750   
    135. D(C  14,C  10,C   9,C   4)   -179.2840         0.021750   
    136. D(C   8,C  10,C   9,N  11)   -178.8677         0.021750   
    137. D(C   8,C  10,C   9,C   4)      1.0221         0.021750   
    138. D(C  14,C  10,C   8,H  30)      0.0442         0.021151   
    139. D(C  14,C  10,C   8,C   7)   -179.8425         0.021151   
    140. D(C   9,C  10,C   8,H  30)    179.7264         0.021151   
    141. D(C   9,C  10,C   8,C   7)     -0.1603         0.021151   
    142. D(C  12,N  11,C   9,C  10)     -0.8551         0.033216   
    143. D(C  12,N  11,C   9,C   4)    179.2556         0.033216   
    144. D(H  31,C  12,N  11,C   9)   -179.9240         0.042578   
    145. D(C  13,C  12,N  11,C   9)      0.2180         0.042578   
    146. D(H  32,C  13,C  12,H  31)      0.2502         0.025529   
    147. D(H  32,C  13,C  12,N  11)   -179.8995         0.025529   
    148. D(C  14,C  13,C  12,H  31)   -179.4144         0.025529   
    149. D(C  14,C  13,C  12,N  11)      0.4360         0.025529   
    150. D(H  33,C  14,C  13,H  32)     -0.1691         0.030948   
    151. D(H  33,C  14,C  13,C  12)    179.4907         0.030948   
    152. D(C  10,C  14,C  13,H  32)    179.9052         0.030948   
    153. D(C  10,C  14,C  13,C  12)     -0.4349         0.030948   
    154. D(H  33,C  14,C  10,C   9)    179.9134         0.024219   
    155. D(H  33,C  14,C  10,C   8)     -0.3980         0.024219   
    156. D(C  13,C  14,C  10,C   9)     -0.1593         0.024219   
    157. D(C  13,C  14,C  10,C   8)    179.5292         0.024219   
    158. D(O  16,C  15,O   5,C   3)      0.2832         0.029486   
    159. D(N  17,C  15,O   5,C   3)    179.5638         0.029486   
    160. D(C  19,N  17,C  15,O  16)    178.1895         0.038525   
    161. D(C  19,N  17,C  15,O   5)     -1.0826         0.038525   
    162. D(C  18,N  17,C  15,O  16)     -3.7611         0.038525   
    163. D(C  18,N  17,C  15,O   5)    176.9667         0.038525   
    164. D(H  25,C  18,N  17,C  15)    118.9804         0.017726   
    165. D(H  24,C  18,N  17,C  19)     57.4639         0.017726   
    166. D(H  24,C  18,N  17,C  15)   -120.7196         0.017726   
    167. D(H  23,C  18,N  17,C  19)    177.3707         0.017726   
    168. D(H  23,C  18,N  17,C  15)     -0.8128         0.017726   
    169. D(H  22,C  19,N  17,C  15)   -140.4747         0.017560   
    170. D(H  21,C  19,N  17,C  18)    160.9920         0.017560   
    171. D(H  21,C  19,N  17,C  15)    -20.8884         0.017560   
    172. D(H  20,C  19,N  17,C  18)    -78.1632         0.017560   
    173. D(H  20,C  19,N  17,C  15)     99.9564         0.017560   
    -----------------------------------------------------------------

Number of atoms                         .... 34
Number of degrees of freedom            .... 173


         *************************************************************
         *                GEOMETRY OPTIMIZATION CYCLE   1            *
         *************************************************************
---------------------------------
CARTESIAN COORDINATES (ANGSTROEM)
---------------------------------
  C     -3.182429   -0.609590   -0.452144
  C     -2.684012   -1.691507   -1.175449
  C     -1.338339   -1.795680   -1.411109
  C     -2.329242    0.355719    0.037055
  C     -0.937138    0.284854   -0.195810
  O     -2.827386    1.448071    0.721942
  C     -0.448600   -0.820378   -0.933585
  C      0.949441   -0.947226   -1.180887
  C      1.832221   -0.034946   -0.717119
  C      0.000606    1.269326    0.283924
  C      1.383667    1.091454    0.025603
  N     -0.446988    2.336116    0.963025
  C      0.410973    3.220613    1.409669
  C      1.792647    3.131733    1.220602
  C      2.276939    2.056967    0.517099
  C     -3.678641    1.268509    1.762665
  O     -4.045625    0.168398    2.154556
  N     -4.049239    2.429203    2.309252
  C     -5.007217    2.450981    3.392001
  C     -3.570587    3.715307    1.849882
  H     -4.314425    4.190914    1.208111
  H     -2.643805    3.581339    1.298833
  H     -3.391788    4.346273    2.718781
  H     -5.317114    1.430379    3.606273
  H     -5.875054    3.044221    3.102579
  H     -4.552734    2.885969    4.282535
  H     -0.942416   -2.631152   -1.967208
  H     -4.240596   -0.524240   -0.258919
  H     -3.368763   -2.437913   -1.545333
  H      1.283514   -1.802050   -1.748586
  H      2.891720   -0.136351   -0.898879
  H     -0.022923    4.052427    1.948745
  H      2.446906    3.892239    1.614739
  H      3.334585    1.937853    0.331538

----------------------------
CARTESIAN COORDINATES (A.U.)
----------------------------
  NO LB      ZA    FRAG     MASS         X           Y           Z
   0 C     6.0000    0    12.011   -6.013920   -1.151959   -0.854428
   1 C     6.0000    0    12.011   -5.072047   -3.196485   -2.221276
   2 C     6.0000    0    12.011   -2.529095   -3.393343   -2.666609
   3 C     6.0000    0    12.011   -4.401629    0.672211    0.070024
   4 C     6.0000    0    12.011   -1.770934    0.538297   -0.370027
   5 O     8.0000    0    15.999   -5.342985    2.736458    1.364273
   6 C     6.0000    0    12.011   -0.847731   -1.550290   -1.764220
   7 C     6.0000    0    12.011    1.794184   -1.789997   -2.231554
   8 C     6.0000    0    12.011    3.462396   -0.066039   -1.355158
   9 C     6.0000    0    12.011    0.001145    2.398678    0.536538
  10 C     6.0000    0    12.011    2.614752    2.062549    0.048382
  11 N     7.0000    0    14.007   -0.844685    4.414619    1.819853
  12 C     6.0000    0    12.011    0.776626    6.086076    2.663888
  13 C     6.0000    0    12.011    3.387612    5.918117    2.306603
  14 C     6.0000    0    12.011    4.302792    3.887103    0.977175
  15 C     6.0000    0    12.011   -6.951624    2.397134    3.330954
  16 O     8.0000    0    15.999   -7.645123    0.318226    4.071520
  17 N     7.0000    0    14.007   -7.651953    4.590528    4.363854
  18 C     6.0000    0    12.011   -9.462270    4.631683    6.409953
  19 C     6.0000    0    12.011   -6.747432    7.020914    3.495771
  20 H     1.0000    0     1.008   -8.153081    7.919679    2.282999
  21 H     1.0000    0     1.008   -4.996067    6.767750    2.454438
  22 H     1.0000    0     1.008   -6.409551    8.213266    5.137752
  23 H     1.0000    0     1.008  -10.047890    2.703025    6.814868
  24 H     1.0000    0     1.008  -11.102244    5.752743    5.863024
  25 H     1.0000    0     1.008   -8.603420    5.453692    8.092819
  26 H     1.0000    0     1.008   -1.780908   -4.972157   -3.717485
  27 H     1.0000    0     1.008   -8.013565   -0.990670   -0.489286
  28 H     1.0000    0     1.008   -6.366039   -4.606988   -2.920256
  29 H     1.0000    0     1.008    2.425490   -3.405380   -3.304349
  30 H     1.0000    0     1.008    5.464559   -0.257667   -1.698635
  31 H     1.0000    0     1.008   -0.043318    7.657976    3.682594
  32 H     1.0000    0     1.008    4.623983    7.355266    3.051415
  33 H     1.0000    0     1.008    6.301453    3.662011    0.626515

--------------------------------
INTERNAL COORDINATES (ANGSTROEM)
--------------------------------
 C      0   0   0     0.000000000000     0.00000000     0.00000000
 C      1   0   0     1.393604934818     0.00000000     0.00000000
 C      2   1   0     1.370117319618   119.97109226     0.00000000
 C      1   2   3     1.378066041256   120.43988757   359.59504938
 C      4   1   2     1.413223473245   121.08095528     0.88052148
 O      4   1   2     1.382191065706   120.42180186   178.17398716
 C      3   2   1     1.403879709539   120.73971495   359.87113376
 C      7   3   2     1.425400544847   120.05090710   179.65177372
 C      8   7   3     1.351530972287   121.40139196   180.98576769
 C      5   4   1     1.441766958058   123.47863726   179.59799243
 C     10   5   4     1.418177110314   119.21299067   178.46131817
 N     10   5   4     1.341476652885   119.63244844   358.35281703
 C     12  10   5     1.310695213021   119.38993457   179.25560239
 C     13  12  10     1.397379836218   123.93131657     0.21796789
 C     14  13  12     1.372799039394   117.90096658     0.43596753
 C      6   4   1     1.356458973148   120.11429276    51.63709318
 O     16   6   4     1.224131899405   123.55390692     0.28322057
 N     16   6   4     1.335406825427   111.90895783   179.56375461
 C     18  16   6     1.445870644969   120.23009725   176.96668297
 C     18  16   6     1.447132927550   123.41742901   358.91736721
 H     20  18  16     1.091497020313   110.39483513    99.95641308
 H     20  18  16     1.086521456352   109.48399425   339.11162529
 H     20  18  16     1.088610088082   108.42539741   219.52533941
 H     19  18  16     1.087923386639   108.78950917   359.18723880
 H     19  18  16     1.090339007958   109.68032228   239.28044292
 H     19  18  16     1.090330880967   109.96621189   118.98036995
 H      3   2   1     1.078895651820   120.52773507   179.79803964
 H      1   2   3     1.079044741885   120.33629460   180.30396084
 H      2   1   3     1.078341267445   119.22835594   180.12786350
 H      8   7   3     1.079171325395   117.73489969     0.65885079
 H      9   8   7     1.079749105385   121.31647134   179.53085140
 H     13  12  10     1.082027192263   115.21800208   180.07598350
 H     14  13  12     1.077853884269   120.38621528   180.10053925
 H     15  14  13     1.080386809674   121.31108886   179.49074878

---------------------------
INTERNAL COORDINATES (A.U.)
---------------------------
 C      0   0   0     0.000000000000     0.00000000     0.00000000
 C      1   0   0     2.633531665687     0.00000000     0.00000000
 C      2   1   0     2.589146505420   119.97109226     0.00000000
 C      1   2   3     2.604167412430   120.43988757   359.59504938
 C      4   1   2     2.670605330461   121.08095528     0.88052148
 O      4   1   2     2.611962578936   120.42180186   178.17398716
 C      3   2   1     2.652948175997   120.73971495   359.87113376
 C      7   3   2     2.693616660904   120.05090710   179.65177372
 C      8   7   3     2.554023399135   121.40139196   180.98576769
 C      5   4   1     2.724544699667   123.47863726   179.59799243
 C     10   5   4     2.679966347890   119.21299067   178.46131817
 N     10   5   4     2.535023489002   119.63244844   358.35281703
 C     12  10   5     2.476854997652   119.38993457   179.25560239
 C     13  12  10     2.640665195515   123.93131657     0.21796789
 C     14  13  12     2.594214221365   117.90096658     0.43596753
 C      6   4   1     2.563335971150   120.11429276    51.63709318
 O     16   6   4     2.313274041672   123.55390692     0.28322057
 N     16   6   4     2.523553177426   111.90895783   179.56375461
 C     18  16   6     2.732299544067   120.23009725   176.96668297
 C     18  16   6     2.734684912449   123.41742901   358.91736721
 H     20  18  16     2.062630444382   110.39483513    99.95641308
 H     20  18  16     2.053227991135   109.48399425   339.11162529
 H     20  18  16     2.057174933099   108.42539741   219.52533941
 H     19  18  16     2.055877255436   108.78950917   359.18723880
 H     19  18  16     2.060442118171   109.68032228   239.28044292
 H     19  18  16     2.060426760385   109.96621189   118.98036995
 H      3   2   1     2.038817309018   120.52773507   179.79803964
 H      1   2   3     2.039099048410   120.33629460   180.30396084
 H      2   1   3     2.037769674377   119.22835594   180.12786350
 H      8   7   3     2.039338256578   117.73489969     0.65885079
 H      9   8   7     2.040430102524   121.31647134   179.53085140
 H     13  12  10     2.044735062833   115.21800208   180.07598350
 H     14  13  12     2.036848653652   120.38621528   180.10053925
 H     15  14  13     2.041635188984   121.31108886   179.49074878

---------------------
BASIS SET INFORMATION
---------------------
There are 4 groups of distinct atoms

 Group   1 Type C   : 11s5p1d contracted to 4s3p1d pattern {6311/311/1}
 Group   2 Type O   : 11s5p1d contracted to 4s3p1d pattern {6311/311/1}
 Group   3 Type N   : 11s5p1d contracted to 4s3p1d pattern {6311/311/1}
 Group   4 Type H   : 5s contracted to 3s pattern {311}

Atom   0C    basis set group =>   1
Atom   1C    basis set group =>   1
Atom   2C    basis set group =>   1
Atom   3C    basis set group =>   1
Atom   4C    basis set group =>   1
Atom   5O    basis set group =>   2
Atom   6C    basis set group =>   1
Atom   7C    basis set group =>   1
Atom   8C    basis set group =>   1
Atom   9C    basis set group =>   1
Atom  10C    basis set group =>   1
Atom  11N    basis set group =>   3
Atom  12C    basis set group =>   1
Atom  13C    basis set group =>   1
Atom  14C    basis set group =>   1
Atom  15C    basis set group =>   1
Atom  16O    basis set group =>   2
Atom  17N    basis set group =>   3
Atom  18C    basis set group =>   1
Atom  19C    basis set group =>   1
Atom  20H    basis set group =>   4
Atom  21H    basis set group =>   4
Atom  22H    basis set group =>   4
Atom  23H    basis set group =>   4
Atom  24H    basis set group =>   4
Atom  25H    basis set group =>   4
Atom  26H    basis set group =>   4
Atom  27H    basis set group =>   4
Atom  28H    basis set group =>   4
Atom  29H    basis set group =>   4
Atom  30H    basis set group =>   4
Atom  31H    basis set group =>   4
Atom  32H    basis set group =>   4
Atom  33H    basis set group =>   4
---------------------------------
AUXILIARY/J BASIS SET INFORMATION
---------------------------------
There are 4 groups of distinct atoms

 Group   1 Type C   : 12s5p4d2f1g contracted to 6s4p3d1f1g pattern {711111/2111/211/2/1}
 Group   2 Type O   : 12s5p4d2f1g contracted to 6s4p3d1f1g pattern {711111/2111/211/2/1}
 Group   3 Type N   : 12s5p4d2f1g contracted to 6s4p3d1f1g pattern {711111/2111/211/2/1}
 Group   4 Type H   : 5s2p1d contracted to 3s1p1d pattern {311/2/1}

Atom   0C    basis set group =>   1
Atom   1C    basis set group =>   1
Atom   2C    basis set group =>   1
Atom   3C    basis set group =>   1
Atom   4C    basis set group =>   1
Atom   5O    basis set group =>   2
Atom   6C    basis set group =>   1
Atom   7C    basis set group =>   1
Atom   8C    basis set group =>   1
Atom   9C    basis set group =>   1
Atom  10C    basis set group =>   1
Atom  11N    basis set group =>   3
Atom  12C    basis set group =>   1
Atom  13C    basis set group =>   1
Atom  14C    basis set group =>   1
Atom  15C    basis set group =>   1
Atom  16O    basis set group =>   2
Atom  17N    basis set group =>   3
Atom  18C    basis set group =>   1
Atom  19C    basis set group =>   1
Atom  20H    basis set group =>   4
Atom  21H    basis set group =>   4
Atom  22H    basis set group =>   4
Atom  23H    basis set group =>   4
Atom  24H    basis set group =>   4
Atom  25H    basis set group =>   4
Atom  26H    basis set group =>   4
Atom  27H    basis set group =>   4
Atom  28H    basis set group =>   4
Atom  29H    basis set group =>   4
Atom  30H    basis set group =>   4
Atom  31H    basis set group =>   4
Atom  32H    basis set group =>   4
Atom  33H    basis set group =>   4
------------------------------------------------------------------------------
                             ORCA STARTUP CALCULATIONS
                           -- RI-GTO INTEGRALS CHOSEN --
------------------------------------------------------------------------------
------------------------------------------------------------------------------
                   ___                                                        
                  /   \      - P O W E R E D   B Y -                         
                 /     \                                                     
                 |  |  |   _    _      __       _____    __    __             
                 |  |  |  | |  | |    /  \     |  _  \  |  |  /  |          
                  \  \/   | |  | |   /    \    | | | |  |  | /  /          
                 / \  \   | |__| |  /  /\  \   | |_| |  |  |/  /          
                |  |  |   |  __  | /  /__\  \  |    /   |      \           
                |  |  |   | |  | | |   __   |  |    \   |  |\   \          
                \     /   | |  | | |  |  |  |  | |\  \  |  | \   \       
                 \___/    |_|  |_| |__|  |__|  |_| \__\ |__|  \__/        
                                                                              
                      - O R C A' S   B I G   F R I E N D -                    
                                      &                                       
                       - I N T E G R A L  F E E D E R -                       
                                                                              
 v1 FN, 2020, v2 2021, v3 2022-2024                                           
------------------------------------------------------------------------------


----------------------
SHARK INTEGRAL PACKAGE
----------------------

Number of atoms                             ...     34
Number of basis functions                   ...    402
Number of shells                            ...    202
Maximum angular momentum                    ...      2
Integral batch strategy                     ... SHARK/LIBINT Hybrid
RI-J (if used) integral strategy            ... SPLIT-RIJ (Revised 2003 algorithm where possible)
Printlevel                                  ...      1
Contraction scheme used                     ... SEGMENTED contraction
Prescreening option                         ... SCHWARTZ
   Thresh                                   ... 2.500e-11
   Tcut                                     ... 2.500e-12
   Tpresel                                  ... 2.500e-12 
Coulomb Range Separation                    ... NOT USED
Exchange Range Separation                   ... NOT USED
Multipole approximations                    ... NOT USED
Finite Nucleus Model                        ... NOT USED
CABS basis                                  ... NOT available
Auxiliary Coulomb fitting basis             ... AVAILABLE
   # of basis functions in Aux-J            ...   1134
   # of shells in Aux-J                     ...    370
   Maximum angular momentum in Aux-J        ...      4
Auxiliary J/K fitting basis                 ... NOT available
Auxiliary Correlation fitting basis         ... NOT available
Auxiliary 'external' fitting basis          ... NOT available

Checking pre-screening integrals            ... done (  0.0 sec) Dimension = 202
Check shell pair data                       ... done (  0.0 sec)
Shell pair information
Shell pair cut-off parameter TPreSel        ...   2.5e-12
Total number of shell pairs                 ...     20503
Shell pairs after pre-screening             ...     14855
Total number of primitive shell pairs       ...     84717
Primitive shell pairs kept                  ...     37253
          la=0 lb=0:   5088 shell pairs
          la=1 lb=0:   5518 shell pairs
          la=1 lb=1:   1507 shell pairs
          la=2 lb=0:   1649 shell pairs
          la=2 lb=1:    937 shell pairs
          la=2 lb=2:    156 shell pairs

Calculating one electron integrals          ... done (  0.0 sec)
Calculating RI/J V-Matrix + Cholesky decomp.... done (  3.3 sec)
Calculating Nuclear repulsion               ... done (  0.0 sec) ENN=   1503.673377114660 Eh

Diagonalization of the overlap matrix:
Smallest eigenvalue                        ... 7.729e-05
Time for diagonalization                   ...    0.010 sec
Threshold for overlap eigenvalues          ... 1.000e-07
Number of eigenvalues below threshold      ... 0
Time for construction of square roots      ...    0.203 sec
Total time needed                          ...    0.304 sec

-------------------
DFT GRID GENERATION
-------------------

General Integration Accuracy     IntAcc      ... 4.388
Radial Grid Type                 RadialGrid  ... OptM3 with GC (2021)
Angular Grid (max. ang.)         AngularGrid ... 4 (Lebedev-302)
Angular grid pruning method      GridPruning ... 4 (adaptive)
Weight generation scheme         WeightScheme... mBecke (2022)
Basis function cutoff            BFCut       ... 1.0000e-11
Integration weight cutoff        WCut        ... 1.0000e-14
Partially contracted basis set               ... off
Rotationally invariant grid construction     ... off
Angular grids for H and He will be reduced by one unit

Total number of grid points                  ...   164373
Total number of batches                      ...     2584
Average number of points per batch           ...       63
Average number of grid points per atom       ...     4834

--------------------
COSX GRID GENERATION
--------------------

GRIDX 1
-------
General Integration Accuracy     IntAcc      ... 3.816
Radial Grid Type                 RadialGrid  ... OptM3 with GC (2021)
Angular Grid (max. ang.)         AngularGrid ... 1 (Lebedev-50)
Angular grid pruning method      GridPruning ... 4 (adaptive)
Weight generation scheme         WeightScheme... mBecke (2022)
Basis function cutoff            BFCut       ... 1.0000e-11
Integration weight cutoff        WCut        ... 1.0000e-14
Partially contracted basis set               ... on
Rotationally invariant grid construction     ... off
Angular grids for H and He will be reduced by one unit

Total number of grid points                  ...    20902
Total number of batches                      ...      180
Average number of points per batch           ...      116
Average number of grid points per atom       ...      615
UseSFitting                                  ... on

GRIDX 2
-------
General Integration Accuracy     IntAcc      ... 4.020
Radial Grid Type                 RadialGrid  ... OptM3 with GC (2021)
Angular Grid (max. ang.)         AngularGrid ... 2 (Lebedev-110)
Angular grid pruning method      GridPruning ... 4 (adaptive)
Weight generation scheme         WeightScheme... mBecke (2022)
Basis function cutoff            BFCut       ... 1.0000e-11
Integration weight cutoff        WCut        ... 1.0000e-14
Partially contracted basis set               ... on
Rotationally invariant grid construction     ... off
Angular grids for H and He will be reduced by one unit

Total number of grid points                  ...    45685
Total number of batches                      ...      372
Average number of points per batch           ...      122
Average number of grid points per atom       ...     1344
UseSFitting                                  ... on

GRIDX 3
-------
General Integration Accuracy     IntAcc      ... 4.338
Radial Grid Type                 RadialGrid  ... OptM3 with GC (2021)
Angular Grid (max. ang.)         AngularGrid ... 3 (Lebedev-194)
Angular grid pruning method      GridPruning ... 4 (adaptive)
Weight generation scheme         WeightScheme... mBecke (2022)
Basis function cutoff            BFCut       ... 1.0000e-11
Integration weight cutoff        WCut        ... 1.0000e-14
Partially contracted basis set               ... on
Rotationally invariant grid construction     ... off
Angular grids for H and He will be reduced by one unit

Total number of grid points                  ...   100044
Total number of batches                      ...      799
Average number of points per batch           ...      125
Average number of grid points per atom       ...     2942
UseSFitting                                  ... on
Initializing property integral containers    ... done (  0.1 sec)

SHARK setup successfully completed in  21.2 seconds

Maximum memory used throughout the entire STARTUP-calculation: 79.8 MB
-------------------------------------------------------------------------------
                                 ORCA GUESS
                   Start orbitals & Density for SCF / CASSCF
-------------------------------------------------------------------------------

------------
SCF SETTINGS
------------
Hamiltonian:
 Density Functional     Method          .... DFT(GTOs)
 Exchange Functional    Exchange        .... B88
   X-Alpha parameter    XAlpha          ....  0.666667
   Becke's b parameter  XBeta           ....  0.004200
 Correlation Functional Correlation     .... LYP
 LDA part of GGA corr.  LDAOpt          .... VWN-3
 Gradients option       PostSCFGGA      .... off
 Hybrid DFT is turned on
   Fraction HF Exchange ScalHFX         ....  0.200000
   Scaling of DF-GGA-X  ScalDFX         ....  0.720000
   Scaling of DF-GGA-C  ScalDFC         ....  0.810000
   Scaling of DF-LDA-C  ScalLDAC        ....  1.000000
   Perturbative correction              ....  0.000000
   NL short-range parameter             ....  4.800000
 RI-approximation to the Coulomb term is turned on
   Number of AuxJ basis functions       .... 1134
   RIJ-COSX (HFX calculated with COS-X)).... on


General Settings:
 Integral files         IntName         .... 4
 Hartree-Fock type      HFTyp           .... RHF
 Total Charge           Charge          ....    0
 Multiplicity           Mult            ....    1
 Number of Electrons    NEL             ....  140
 Basis Dimension        Dim             ....  402
 Nuclear Repulsion      ENuc            ....   1503.6733771147 Eh

Convergence Acceleration:
 AO-DIIS                CNVDIIS         .... on
   Start iteration      DIISMaxIt       ....    12
   Startup error        DIISStart       ....  0.200000
   # of expansion vecs  DIISMaxEq       ....     5
   Bias factor          DIISBfac        ....   1.050
   Max. coefficient     DIISMaxC        ....  10.000
 MO-DIIS                CNVKDIIS        .... off
 Trust-Rad. Augm. Hess. CNVTRAH         .... auto
   Auto Start mean grad. ratio tolernc. ....  1.125000
   Auto Start start iteration           ....    50
   Auto Start num. interpolation iter.  ....    10
   Max. Number of Micro iterations      ....    24
   Max. Number of Macro iterations      .... Maxiter - #DIIS iter
   Number of Davidson start vectors     ....     2
   Converg. threshold    (grad. norm)   ....   1.000e-05
   Grad. Scal. Fac. for Micro threshold ....   0.100
   Minimum threshold for Micro iter.    ....   1.000e-02
   NR start threshold (gradient norm)   ....   1.000e-04
   Initial trust radius                 ....   0.400
   Minimum AH scaling param. (alpha)    ....   1.000
   Maximum AH scaling param. (alpha)    .... 1000.000
   Quad. conv. algorithm                .... NR
   White noise on init. David. guess    .... on
   Maximum white noise                  ....   0.010
   Pseudo random numbers                .... off
   Inactive MOs                         .... canonical
   Orbital update algorithm             .... Taylor
   Preconditioner                       .... Diag
   Full preconditioner red. dimension   ....   250
 SOSCF                  CNVSOSCF        .... on
   Start iteration      SOSCFMaxIt      ....   150
   Startup grad/error   SOSCFStart      ....  0.003300
   Hessian update       SOSCFHessUp     .... L-BFGS
 Level Shifting         CNVShift        .... on
   Level shift para.    LevelShift      ....    0.2500
   Turn off err/grad.   ShiftErr        ....    0.0010
 Zerner damping         CNVZerner       .... off
 Static damping         CNVDamp         .... on
   Fraction old density DampFac         ....    0.7000
   Max. Damping (<1)    DampMax         ....    0.9800
   Min. Damping (>=0)   DampMin         ....    0.0000
   Turn off err/grad.   DampErr         ....    0.1000

SCF Procedure:
 Maximum # iterations   MaxIter         ....   125
 SCF integral mode      SCFMode         .... Direct
   Integral package                     .... SHARK and LIBINT hybrid scheme
 Reset frequency        DirectResetFreq ....    20
 Integral Threshold     Thresh          ....  2.500e-11 Eh
 Primitive CutOff       TCut            ....  2.500e-12 Eh

Convergence Tolerance:
 Convergence Check Mode ConvCheckMode   .... Total+1el-Energy
 Convergence forced     ConvForced      .... 1
 Energy Change          TolE            ....  1.000e-08 Eh
 1-El. energy change                    ....  1.000e-05 Eh
 Orbital Gradient       TolG            ....  1.000e-05
 Orbital Rotation angle TolX            ....  1.000e-05
 DIIS Error             TolErr          ....  5.000e-07

------------------------------
INITIAL GUESS: MODEL POTENTIAL
------------------------------
Loading Hartree-Fock densities                     ... done
Calculating cut-offs                               ... done
Initializing the effective Hamiltonian             ... done
Setting up the integral package (SHARK)            ... done
Starting the Coulomb interaction                   ... done (   0.7 sec)
Making the grid                                    ... done (   7.1 sec)
Mapping shells                                     ... done
Starting the XC term evaluation                    ... done (   0.3 sec)
  promolecular density results
     # of electrons  =    139.996325214
     EX              =   -116.100987722
     EC              =     -4.792530826
     EX+EC           =   -120.893518548
Transforming the Hamiltonian                       ... done (   0.0 sec)
Diagonalizing the Hamiltonian                      ... done (   0.0 sec)
Back transforming the eigenvectors                 ... done (   0.2 sec)
Now organizing SCF variables                       ... done
                      ------------------
                      INITIAL GUESS DONE (   9.3 sec)
                      ------------------
             **** ENERGY FILE WAS UPDATED (4.en.tmp) ****
Finished Guess after  12.7 sec
Maximum memory used throughout the entire GUESS-calculation: 47.6 MB

-------------------------------------------------------------------------------------------
                                      ORCA LEAN-SCF
                              memory conserving SCF solver
-------------------------------------------------------------------------------------------

--------------------
CPCM SOLVATION MODEL
--------------------
CPCM parameters:
  Epsilon                                         ...      80.1510
  Refrac                                          ...       1.3328
  Rsolv                                           ...       1.3000
  Surface type                                    ... GAUSSIAN VDW
  Discretization scheme                           ... Constant charge density
    Threshold for H atoms                         ...       5.0000 (charges/Ang^2)
    Threshold for non-H atoms                     ...       5.0000 (charges/Ang^2)
  Epsilon function type                           ...         CPCM
Solvent:                                          ... WATER
Radii:
  Scheme                                          ... Element-dependent radii
  Radius for C  used is    3.8550 Bohr (=   2.0400 Ang.)
  Radius for O  used is    3.4469 Bohr (=   1.8240 Ang.)
  Radius for N  used is    3.5149 Bohr (=   1.8600 Ang.)
  Radius for H  used is    2.4944 Bohr (=   1.3200 Ang.)
Calculating surface                               ...        done! (  0.0s)
Cavity surface points                             ...         3004
Cavity Volume                                     ...    2098.5264
Cavity Surface-area                               ...    1058.6909
Calculating surface distance matrix               ...        done! (  0.0s)
Performing Cholesky decomposition & store         ...        done! (  6.4s)
Overall time for CPCM initialization              ...                 6.5s

----------------------------------------D-I-I-S--------------------------------------------
Iteration    Energy (Eh)           Delta-E    RMSDP     MaxDP     DIISErr   Damp  Time(sec)
-------------------------------------------------------------------------------------------
               ***  Starting incremental Fock matrix formation  ***
    1    -877.8316553011331962     0.00e+00  1.96e-03  7.58e-02  3.53e-01  0.700  17.8
    2    -878.0539794485944185    -2.22e-01  1.47e-03  4.88e-02  1.37e-01  0.700  11.6
                               ***Turning on AO-DIIS***
    3    -878.1457618008203099    -9.18e-02  6.50e-04  1.96e-02  4.13e-02  0.700  11.7
    4    -878.2009648949265284    -5.52e-02  1.03e-03  2.73e-02  2.19e-02  0.000  11.1
    5    -878.3206197736631111    -1.20e-01  2.37e-04  6.18e-03  5.35e-03  0.000  12.0
                              *** Initializing SOSCF ***
---------------------------------------S-O-S-C-F--------------------------------------
Iteration    Energy (Eh)           Delta-E    RMSDP     MaxDP     MaxGrad    Time(sec)
--------------------------------------------------------------------------------------
    6    -878.3212035541441765    -5.84e-04  6.61e-05  1.76e-03  1.97e-03    12.0
               *** Restarting incremental Fock matrix formation ***
    7    -878.3212676806597301    -6.41e-05  3.95e-05  1.57e-03  3.78e-04    17.1
    8    -878.3212564730770282     1.12e-05  2.00e-05  9.92e-04  7.07e-04    12.0
    9    -878.3212755069484956    -1.90e-05  3.12e-06  1.03e-04  2.14e-05    11.0
   10    -878.3212754399592086     6.70e-08  1.66e-06  6.93e-05  3.57e-05    10.7
   11    -878.3212755645704419    -1.25e-07  5.37e-07  1.97e-05  4.19e-06    10.9
   12    -878.3212755554554860     9.11e-09  2.82e-07  1.36e-05  5.95e-06     8.0
                 **** Energy Check signals convergence ****

               *****************************************************
               *                     SUCCESS                       *
               *           SCF CONVERGED AFTER  12 CYCLES          *
               *****************************************************

Recomputing exchange energy using gridx3       ... done (   23.216 sec)
Old exchange energy                            :    -23.582970628 Eh
New exchange energy                            :    -23.582980853 Eh
Exchange energy change after final integration :     -0.000010225 Eh
Total energy after final integration           :   -878.321285781 Eh
             **** ENERGY FILE WAS UPDATED (4.en.tmp) ****

----------------
TOTAL SCF ENERGY
----------------

Total Energy       :       -878.32128578093830 Eh          -23900.33726 eV

Components:
Nuclear Repulsion  :       1503.67337711466007 Eh           40917.03277 eV
Electronic Energy  :      -2381.97435831490566 Eh          -64816.81751 eV
One Electron Energy:      -4180.30840088590958 Eh         -113751.97463 eV
Two Electron Energy:       1798.33404257100415 Eh           48935.15711 eV
CPCM Dielectric    :         -0.02029435521004 Eh              -0.55224 eV

Virial components:
Potential Energy   :      -1753.88329554453503 Eh          -47725.59079 eV
Kinetic Energy     :        875.56200976359662 Eh           23825.25354 eV
Virial Ratio       :          2.00315143414924

DFT components:
N(Alpha)           :       69.999933981785 electrons
N(Beta)            :       69.999933981785 electrons
N(Total)           :      139.999867963570 electrons
E(X)               :      -93.741976415920 Eh       
E(C)               :       -6.164309460744 Eh       
E(XC)              :      -99.906285876664 Eh       

CPCM Solvation Model Properties:
Surface-charge          :         -0.02782129976493
Corrected charge        :          0.00000000000000
Outlying charge corr.   :          0.00004350861022 Eh               0.00118 eV
Free-energy (cav+disp)  :  This term is not implemented in the current solvation scheme

---------------
SCF CONVERGENCE
---------------

  Last Energy change         ...   -9.1150e-09  Tolerance :   1.0000e-08
  Last MAX-Density change    ...    1.3603e-05  Tolerance :   1.0000e-07
  Last RMS-Density change    ...    2.8168e-07  Tolerance :   5.0000e-09
  Last DIIS Error            ...    1.9667e-03  Tolerance :   5.0000e-07
  Last Orbital Gradient      ...    5.9473e-06  Tolerance :   1.0000e-05
  Last Orbital Rotation      ...    9.7927e-06  Tolerance :   1.0000e-05


----------------
ORBITAL ENERGIES
----------------

  NO   OCC          E(Eh)            E(eV) 
   0   2.0000     -19.168387      -521.5983 
   1   2.0000     -19.085559      -519.3445 
   2   2.0000     -14.343698      -390.3119 
   3   2.0000     -14.306046      -389.2873 
   4   2.0000     -10.317691      -280.7586 
   5   2.0000     -10.246414      -278.8191 
   6   2.0000     -10.220104      -278.1032 
   7   2.0000     -10.207002      -277.7467 
   8   2.0000     -10.194735      -277.4128 
   9   2.0000     -10.192952      -277.3643 
  10   2.0000     -10.192357      -277.3481 
  11   2.0000     -10.192178      -277.3433 
  12   2.0000     -10.190456      -277.2964 
  13   2.0000     -10.188911      -277.2544 
  14   2.0000     -10.180314      -277.0204 
  15   2.0000     -10.180220      -277.0179 
  16   2.0000     -10.179564      -277.0000 
  17   2.0000     -10.179316      -276.9933 
  18   2.0000     -10.177497      -276.9438 
  19   2.0000     -10.175533      -276.8903 
  20   2.0000      -1.122774       -30.5522 
  21   2.0000      -1.023058       -27.8388 
  22   2.0000      -0.959993       -26.1227 
  23   2.0000      -0.950578       -25.8665 
  24   2.0000      -0.884936       -24.0803 
  25   2.0000      -0.841554       -22.8998 
  26   2.0000      -0.809475       -22.0269 
  27   2.0000      -0.787512       -21.4293 
  28   2.0000      -0.754124       -20.5208 
  29   2.0000      -0.745641       -20.2899 
  30   2.0000      -0.722976       -19.6732 
  31   2.0000      -0.709014       -19.2933 
  32   2.0000      -0.656463       -17.8633 
  33   2.0000      -0.650560       -17.7026 
  34   2.0000      -0.641813       -17.4646 
  35   2.0000      -0.615660       -16.7529 
  36   2.0000      -0.580449       -15.7948 
  37   2.0000      -0.546515       -14.8714 
  38   2.0000      -0.537260       -14.6196 
  39   2.0000      -0.529551       -14.4098 
  40   2.0000      -0.520630       -14.1671 
  41   2.0000      -0.497456       -13.5365 
  42   2.0000      -0.492389       -13.3986 
  43   2.0000      -0.485372       -13.2077 
  44   2.0000      -0.479338       -13.0434 
  45   2.0000      -0.466549       -12.6954 
  46   2.0000      -0.446892       -12.1606 
  47   2.0000      -0.446299       -12.1444 
  48   2.0000      -0.440069       -11.9749 
  49   2.0000      -0.429839       -11.6965 
  50   2.0000      -0.423710       -11.5297 
  51   2.0000      -0.413221       -11.2443 
  52   2.0000      -0.408012       -11.1026 
  53   2.0000      -0.407685       -11.0937 
  54   2.0000      -0.403123       -10.9695 
  55   2.0000      -0.401729       -10.9316 
  56   2.0000      -0.386200       -10.5090 
  57   2.0000      -0.385353       -10.4860 
  58   2.0000      -0.371735       -10.1154 
  59   2.0000      -0.363523        -9.8920 
  60   2.0000      -0.356117        -9.6904 
  61   2.0000      -0.340388        -9.2624 
  62   2.0000      -0.324077        -8.8186 
  63   2.0000      -0.308856        -8.4044 
  64   2.0000      -0.283608        -7.7174 
  65   2.0000      -0.279428        -7.6036 
  66   2.0000      -0.254101        -6.9144 
  67   2.0000      -0.248987        -6.7753 
  68   2.0000      -0.244929        -6.6649 
  69   2.0000      -0.225493        -6.1360 
  70   0.0000      -0.058507        -1.5921 
  71   0.0000      -0.050666        -1.3787 
  72   0.0000      -0.011095        -0.3019 
  73   0.0000       0.015735         0.4282 
  74   0.0000       0.046778         1.2729 
  75   0.0000       0.048887         1.3303 
  76   0.0000       0.058886         1.6024 
  77   0.0000       0.063481         1.7274 
  78   0.0000       0.065485         1.7819 
  79   0.0000       0.079041         2.1508 
  80   0.0000       0.087797         2.3891 
*Only the first 10 virtual orbitals were printed.

                    ********************************
                    * MULLIKEN POPULATION ANALYSIS *
                    ********************************

-----------------------
MULLIKEN ATOMIC CHARGES
-----------------------
   0 C :   -0.210953
   1 C :   -0.222453
   2 C :   -0.228081
   3 C :    0.202483
   4 C :    0.007377
   5 O :   -0.337341
   6 C :    0.006961
   7 C :   -0.229168
   8 C :   -0.233219
   9 C :    0.109210
  10 C :   -0.011267
  11 N :   -0.337056
  12 C :   -0.050273
  13 C :   -0.289943
  14 C :   -0.105836
  15 C :    0.529399
  16 O :   -0.464887
  17 N :   -0.324154
  18 C :   -0.524459
  19 C :   -0.538186
  20 H :    0.226951
  21 H :    0.266000
  22 H :    0.228970
  23 H :    0.233308
  24 H :    0.233644
  25 H :    0.236477
  26 H :    0.226204
  27 H :    0.232224
  28 H :    0.226559
  29 H :    0.228962
  30 H :    0.227534
  31 H :    0.220346
  32 H :    0.228944
  33 H :    0.235724
Sum of atomic charges:   -0.0000000

--------------------------------
MULLIKEN REDUCED ORBITAL CHARGES
--------------------------------
  0 C s       :     3.155169  s :     3.155169
      pz      :     0.981630  p :     2.996801
      px      :     1.040545
      py      :     0.974626
      dz2     :     0.009454  d :     0.058983
      dxz     :     0.008571
      dyz     :     0.008738
      dx2y2   :     0.019117
      dxy     :     0.013102

  1 C s       :     3.198342  s :     3.198342
      pz      :     0.976695  p :     2.960843
      px      :     0.988610
      py      :     0.995538
      dz2     :     0.007498  d :     0.063269
      dxz     :     0.012966
      dyz     :     0.007206
      dx2y2   :     0.013437
      dxy     :     0.022161

  2 C s       :     3.188258  s :     3.188258
      pz      :     1.007037  p :     2.978434
      px      :     0.958592
      py      :     1.012805
      dz2     :     0.004643  d :     0.061388
      dxz     :     0.013102
      dyz     :     0.008788
      dx2y2   :     0.016035
      dxy     :     0.018819

  3 C s       :     3.117244  s :     3.117244
      pz      :     0.930296  p :     2.565657
      px      :     0.891005
      py      :     0.744356
      dz2     :     0.014870  d :     0.114616
      dxz     :     0.019061
      dyz     :     0.019659
      dx2y2   :     0.030090
      dxy     :     0.030936

  4 C s       :     3.047706  s :     3.047706
      pz      :     0.977311  p :     2.876800
      px      :     0.866380
      py      :     1.033109
      dz2     :     0.008747  d :     0.068117
      dxz     :     0.013694
      dyz     :     0.008672
      dx2y2   :     0.018778
      dxy     :     0.018227

  5 O s       :     3.791727  s :     3.791727
      pz      :     1.426508  p :     4.530339
      px      :     1.551625
      py      :     1.552206
      dz2     :     0.002979  d :     0.015276
      dxz     :     0.003104
      dyz     :     0.003248
      dx2y2   :     0.003331
      dxy     :     0.002614

  6 C s       :     3.090779  s :     3.090779
      pz      :     0.946141  p :     2.826034
      px      :     0.938845
      py      :     0.941048
      dz2     :     0.009458  d :     0.076226
      dxz     :     0.014619
      dyz     :     0.009983
      dx2y2   :     0.021455
      dxy     :     0.020711

  7 C s       :     3.193775  s :     3.193775
      pz      :     1.002436  p :     2.973312
      px      :     0.947132
      py      :     1.023744
      dz2     :     0.005082  d :     0.062082
      dxz     :     0.012324
      dyz     :     0.009890
      dx2y2   :     0.018869
      dxy     :     0.015916

  8 C s       :     3.201654  s :     3.201654
      pz      :     0.974568  p :     2.969566
      px      :     1.040071
      py      :     0.954927
      dz2     :     0.009348  d :     0.062000
      dxz     :     0.007708
      dyz     :     0.009768
      dx2y2   :     0.022760
      dxy     :     0.012415

  9 C s       :     3.065818  s :     3.065818
      pz      :     0.923877  p :     2.725159
      px      :     0.948613
      py      :     0.852669
      dz2     :     0.011809  d :     0.099813
      dxz     :     0.017810
      dyz     :     0.014328
      dx2y2   :     0.026285
      dxy     :     0.029581

 10 C s       :     3.071763  s :     3.071763
      pz      :     0.978435  p :     2.865513
      px      :     0.884290
      py      :     1.002787
      dz2     :     0.009884  d :     0.073991
      dxz     :     0.012803
      dyz     :     0.010439
      dx2y2   :     0.021282
      dxy     :     0.019582

 11 N s       :     3.614942  s :     3.614942
      pz      :     1.117987  p :     3.684947
      px      :     1.502736
      py      :     1.064225
      dz2     :     0.005335  d :     0.037167
      dxz     :     0.006956
      dyz     :     0.005897
      dx2y2   :     0.007151
      dxy     :     0.011828

 12 C s       :     3.134517  s :     3.134517
      pz      :     0.948272  p :     2.825404
      px      :     0.912750
      py      :     0.964381
      dz2     :     0.007536  d :     0.090352
      dxz     :     0.016203
      dyz     :     0.013030
      dx2y2   :     0.029233
      dxy     :     0.024351

 13 C s       :     3.232121  s :     3.232121
      pz      :     0.991584  p :     2.998308
      px      :     0.984653
      py      :     1.022071
      dz2     :     0.006694  d :     0.059514
      dxz     :     0.011237
      dyz     :     0.007547
      dx2y2   :     0.014409
      dxy     :     0.019627

 14 C s       :     3.157754  s :     3.157754
      pz      :     0.941413  p :     2.885744
      px      :     0.997611
      py      :     0.946720
      dz2     :     0.009529  d :     0.062339
      dxz     :     0.008009
      dyz     :     0.009296
      dx2y2   :     0.021757
      dxy     :     0.013747

 15 C s       :     2.903653  s :     2.903653
      pz      :     0.773962  p :     2.336002
      px      :     0.797084
      py      :     0.764956
      dz2     :     0.043907  d :     0.230946
      dxz     :     0.028611
      dyz     :     0.058115
      dx2y2   :     0.048310
      dxy     :     0.052004

 16 O s       :     3.826820  s :     3.826820
      pz      :     1.630081  p :     4.622060
      px      :     1.578304
      py      :     1.413675
      dz2     :     0.002022  d :     0.016007
      dxz     :     0.000743
      dyz     :     0.004407
      dx2y2   :     0.004457
      dxy     :     0.004379

 17 N s       :     3.463985  s :     3.463985
      pz      :     1.332125  p :     3.824543
      px      :     1.399793
      py      :     1.092625
      dz2     :     0.005751  d :     0.035626
      dxz     :     0.004498
      dyz     :     0.009498
      dx2y2   :     0.007756
      dxy     :     0.008123

 18 C s       :     3.320700  s :     3.320700
      pz      :     0.951789  p :     3.132721
      px      :     0.997027
      py      :     1.183904
      dz2     :     0.018648  d :     0.071038
      dxz     :     0.019003
      dyz     :     0.008802
      dx2y2   :     0.011903
      dxy     :     0.012682

 19 C s       :     3.325488  s :     3.325488
      pz      :     1.129498  p :     3.142012
      px      :     1.148090
      py      :     0.864424
      dz2     :     0.006540  d :     0.070686
      dxz     :     0.013835
      dyz     :     0.020739
      dx2y2   :     0.014758
      dxy     :     0.014814

 20 H s       :     0.773049  s :     0.773049

 21 H s       :     0.734000  s :     0.734000

 22 H s       :     0.771030  s :     0.771030

 23 H s       :     0.766692  s :     0.766692

 24 H s       :     0.766356  s :     0.766356

 25 H s       :     0.763523  s :     0.763523

 26 H s       :     0.773796  s :     0.773796

 27 H s       :     0.767776  s :     0.767776

 28 H s       :     0.773441  s :     0.773441

 29 H s       :     0.771038  s :     0.771038

 30 H s       :     0.772466  s :     0.772466

 31 H s       :     0.779654  s :     0.779654

 32 H s       :     0.771056  s :     0.771056

 33 H s       :     0.764276  s :     0.764276



                     *******************************
                     * LOEWDIN POPULATION ANALYSIS *
                     *******************************

----------------------
LOEWDIN ATOMIC CHARGES
----------------------
   0 C :   -0.117954
   1 C :   -0.104786
   2 C :   -0.104705
   3 C :   -0.006454
   4 C :   -0.038934
   5 O :    0.083680
   6 C :   -0.032997
   7 C :   -0.092600
   8 C :   -0.098694
   9 C :   -0.036835
  10 C :   -0.050380
  11 N :   -0.002597
  12 C :   -0.105088
  13 C :   -0.129085
  14 C :   -0.061839
  15 C :   -0.123083
  16 O :   -0.197621
  17 N :    0.044830
  18 C :   -0.242184
  19 C :   -0.249447
  20 H :    0.109536
  21 H :    0.118165
  22 H :    0.114750
  23 H :    0.117444
  24 H :    0.114209
  25 H :    0.114354
  26 H :    0.122488
  27 H :    0.121995
  28 H :    0.123492
  29 H :    0.124872
  30 H :    0.124175
  31 H :    0.107325
  32 H :    0.126287
  33 H :    0.127679

-------------------------------
LOEWDIN REDUCED ORBITAL CHARGES
-------------------------------
  0 C s       :     2.830778  s :     2.830778
      pz      :     1.016154  p :     3.156132
      px      :     1.072860
      py      :     1.067118
      dz2     :     0.018188  d :     0.131044
      dxz     :     0.017972
      dyz     :     0.022234
      dx2y2   :     0.039069
      dxy     :     0.033582

  1 C s       :     2.826891  s :     2.826891
      pz      :     0.995144  p :     3.140289
      px      :     1.098841
      py      :     1.046304
      dz2     :     0.015334  d :     0.137607
      dxz     :     0.027425
      dyz     :     0.015363
      dx2y2   :     0.034221
      dxy     :     0.045263

  2 C s       :     2.825895  s :     2.825895
      pz      :     1.007890  p :     3.145041
      px      :     1.095173
      py      :     1.041978
      dz2     :     0.009991  d :     0.133769
      dxz     :     0.027977
      dyz     :     0.014807
      dx2y2   :     0.038424
      dxy     :     0.042569

  3 C s       :     2.786912  s :     2.786912
      pz      :     0.955001  p :     2.967336
      px      :     1.068624
      py      :     0.943712
      dz2     :     0.031013  d :     0.252206
      dxz     :     0.039072
      dyz     :     0.044780
      dx2y2   :     0.068347
      dxy     :     0.068995

  4 C s       :     2.784177  s :     2.784177
      pz      :     1.007960  p :     3.094308
      px      :     1.046235
      py      :     1.040112
      dz2     :     0.018496  d :     0.160449
      dxz     :     0.030260
      dyz     :     0.020512
      dx2y2   :     0.046589
      dxy     :     0.044592

  5 O s       :     3.359328  s :     3.359328
      pz      :     1.439454  p :     4.531505
      px      :     1.545294
      py      :     1.546757
      dz2     :     0.004896  d :     0.025487
      dxz     :     0.006280
      dyz     :     0.005253
      dx2y2   :     0.005083
      dxy     :     0.003975

  6 C s       :     2.778480  s :     2.778480
      pz      :     0.978528  p :     3.080698
      px      :     1.064712
      py      :     1.037458
      dz2     :     0.019929  d :     0.173820
      dxz     :     0.031585
      dyz     :     0.023459
      dx2y2   :     0.050280
      dxy     :     0.048567

  7 C s       :     2.827493  s :     2.827493
      pz      :     0.999935  p :     3.130522
      px      :     1.075291
      py      :     1.055296
      dz2     :     0.010557  d :     0.134585
      dxz     :     0.026821
      dyz     :     0.016975
      dx2y2   :     0.042808
      dxy     :     0.037425

  8 C s       :     2.827096  s :     2.827096
      pz      :     1.002844  p :     3.136534
      px      :     1.078364
      py      :     1.055325
      dz2     :     0.018115  d :     0.135064
      dxz     :     0.016198
      dyz     :     0.023265
      dx2y2   :     0.045777
      dxy     :     0.031708

  9 C s       :     2.782632  s :     2.782632
      pz      :     0.965456  p :     3.027199
      px      :     1.061473
      py      :     1.000270
      dz2     :     0.023886  d :     0.227003
      dxz     :     0.039942
      dyz     :     0.032778
      dx2y2   :     0.059521
      dxy     :     0.070876

 10 C s       :     2.783266  s :     2.783266
      pz      :     0.982919  p :     3.095530
      px      :     1.075240
      py      :     1.037371
      dz2     :     0.020730  d :     0.171584
      dxz     :     0.029205
      dyz     :     0.023575
      dx2y2   :     0.050294
      dxy     :     0.047780

 11 N s       :     3.134221  s :     3.134221
      pz      :     1.128737  p :     3.799475
      px      :     1.529250
      py      :     1.141488
[...]
 50:    976.66   0.011893   60.10  0.003800  (-0.043182  0.002088  0.043942)
 51:    986.88   0.014709   74.33  0.004651  ( 0.047369 -0.024463 -0.042531)
 52:   1011.21   0.038059  192.33  0.011745  (-0.056766  0.051985  0.076291)
 53:   1076.02   0.034597  174.84  0.010034  (-0.051895  0.055764  0.065046)
 54:   1077.18   0.008381   42.35  0.002428  (-0.022096 -0.039940 -0.018560)
 55:   1084.15   0.008259   41.74  0.002377  ( 0.036640  0.006500 -0.031504)
 56:   1103.74   0.018431   93.14  0.005211  ( 0.067706 -0.008930 -0.023389)
 57:   1117.80   0.186971  944.87  0.052198  (-0.146415  0.124749  0.123281)
 58:   1129.67   0.001154    5.83  0.000319  ( 0.010684 -0.014263 -0.001148)
 59:   1133.06   0.001415    7.15  0.000390  (-0.013586  0.003193  0.013965)
 60:   1171.38   0.006049   30.57  0.001611  ( 0.028273 -0.016865 -0.022970)
 61:   1180.52   0.001788    9.04  0.000473  ( 0.017113  0.005126 -0.012392)
 62:   1194.67   0.025985  131.32  0.006788  ( 0.061838 -0.030869 -0.044842)
 63:   1207.80   0.004237   21.41  0.001095  ( 0.017043  0.020003  0.020104)
 64:   1253.28   0.022867  115.56  0.005694  (-0.053189  0.023631  0.048024)
 65:   1255.66   0.017383   87.85  0.004320  (-0.050618  0.015665  0.038890)
 66:   1279.32   0.002286   11.55  0.000558  ( 0.003565  0.011109  0.020530)
 67:   1288.77   0.003762   19.01  0.000911  ( 0.010629 -0.025514 -0.012122)
 68:   1324.84   0.015342   77.53  0.003614  (-0.038256  0.031665  0.033877)
 69:   1366.58   0.006201   31.34  0.001416  ( 0.030908  0.020249  0.007128)
 70:   1378.31   0.002086   10.54  0.000472  ( 0.019198  0.010111 -0.001239)
 71:   1408.20   0.020767  104.95  0.004602  ( 0.044253 -0.034144 -0.038444)
 72:   1416.57   0.034324  173.46  0.007561  ( 0.064328 -0.036719 -0.045553)
 73:   1429.54   0.002554   12.91  0.000558  ( 0.017517  0.015644  0.002438)
 74:   1442.35   0.000346    1.75  0.000075  ( 0.007254  0.003971  0.002538)
 75:   1452.18   0.001165    5.89  0.000250  (-0.002287  0.014648 -0.005537)
 76:   1458.65   0.010453   52.82  0.002236  (-0.034918  0.016061  0.027550)
 77:   1468.83   0.007068   35.72  0.001502  ( 0.009688  0.029567 -0.023098)
 78:   1489.98   0.000430    2.17  0.000090  (-0.003022 -0.006529 -0.006186)
 79:   1500.81   0.005775   29.18  0.001201  (-0.023699 -0.003070 -0.025093)
 80:   1501.80   0.003180   16.07  0.000661  (-0.014130 -0.018188  0.011414)
 81:   1503.32   0.002717   13.73  0.000564  ( 0.020516  0.006762 -0.009868)
 82:   1513.04   0.000867    4.38  0.000179  (-0.009649 -0.004584 -0.008039)
 83:   1532.54   0.019116   96.61  0.003893  (-0.043350  0.018121  0.041048)
 84:   1544.96   0.001803    9.11  0.000364  (-0.011060  0.007167  0.013803)
 85:   1552.91   0.004472   22.60  0.000899  ( 0.026187  0.014031  0.004004)
 86:   1567.91   0.004923   24.88  0.000980  ( 0.004559 -0.026646 -0.015781)
 87:   1754.50   0.183801  928.86  0.032692  ( 0.016293 -0.176238  0.036966)
 88:   3030.96   0.007278   36.78  0.000749  ( 0.015100  0.007658 -0.021511)
 89:   3036.05   0.024287  122.74  0.002496  (-0.034501  0.036061 -0.002383)
 90:   3093.19   0.017926   90.59  0.001809  (-0.023646 -0.019342 -0.029585)
 91:   3095.37   0.000489    2.47  0.000049  ( 0.001775  0.005961  0.003254)
 92:   3143.14   0.006097   30.81  0.000605  (-0.004063  0.016292  0.017985)
 93:   3176.70   0.001378    6.97  0.000135  ( 0.001110  0.010297 -0.005306)
 94:   3178.43   0.000753    3.80  0.000074  ( 0.001873  0.006125  0.005736)
 95:   3185.70   0.006796   34.35  0.000666  ( 0.008162 -0.016889 -0.017717)
 96:   3189.32   0.002577   13.02  0.000252  (-0.014084  0.002308  0.006961)
 97:   3193.62   0.002784   14.07  0.000272  (-0.013535  0.002649  0.009047)
 98:   3198.06   0.006867   34.70  0.000670  (-0.022397 -0.012450 -0.003664)
 99:   3201.15   0.004602   23.26  0.000449  (-0.004565  0.015591  0.013591)
100:   3212.84   0.006565   33.18  0.000638  (-0.005764 -0.021033 -0.012731)
101:   3229.38   0.002221   11.22  0.000215  ( 0.014438  0.002296 -0.000924)

* The epsilon (eps) is given for a Dirac delta lineshape.
** The dipole moment derivative (T) already includes vibrational overlap.

The first frequency considered to be a vibration is 7
The total number of vibrations considered is 95


--------------------------
THERMOCHEMISTRY AT 298.15K
--------------------------

Temperature         ...   298.15 K
Pressure            ...     1.00 atm
Total Mass          ...   266.30 AMU
Quasi RRHO          ...     True
Cut-Off Frequency   ...     1.00 cm^-1

Throughout the following assumptions are being made:
  (1) The electronic state is orbitally nondegenerate
  (2) There are no thermally accessible electronically excited states
  (3) Hindered rotations indicated by low frequency modes are not
      treated as such but are treated as vibrations and this may
      cause some error
  (4) All equations used are the standard statistical mechanics
      equations for an ideal gas
  (5) All vibrations are strictly harmonic

freq.      23.37  E(vib)   ...       0.56 
freq.      42.82  E(vib)   ...       0.53 
freq.      58.01  E(vib)   ...       0.51 
freq.      87.90  E(vib)   ...       0.48 
freq.      94.18  E(vib)   ...       0.47 
freq.     105.60  E(vib)   ...       0.45 
freq.     127.47  E(vib)   ...       0.43 
freq.     185.56  E(vib)   ...       0.37 
freq.     202.81  E(vib)   ...       0.35 
freq.     208.16  E(vib)   ...       0.34 
freq.     234.22  E(vib)   ...       0.32 
freq.     241.78  E(vib)   ...       0.31 
freq.     255.43  E(vib)   ...       0.30 
freq.     341.04  E(vib)   ...       0.23 
freq.     359.08  E(vib)   ...       0.22 
freq.     385.18  E(vib)   ...       0.20 
freq.     400.77  E(vib)   ...       0.19 
freq.     446.02  E(vib)   ...       0.17 
freq.     456.06  E(vib)   ...       0.16 
freq.     472.32  E(vib)   ...       0.15 
freq.     489.57  E(vib)   ...       0.15 
freq.     503.39  E(vib)   ...       0.14 
freq.     518.97  E(vib)   ...       0.13 
freq.     535.33  E(vib)   ...       0.13 
freq.     582.80  E(vib)   ...       0.11 
freq.     595.51  E(vib)   ...       0.10 
freq.     622.27  E(vib)   ...       0.09 
freq.     661.56  E(vib)   ...       0.08 
freq.     681.85  E(vib)   ...       0.08 
freq.     692.33  E(vib)   ...       0.07 
freq.     699.11  E(vib)   ...       0.07 
freq.     737.74  E(vib)   ...       0.06 
freq.     741.66  E(vib)   ...       0.06 
freq.     778.24  E(vib)   ...       0.05 
freq.     800.83  E(vib)   ...       0.05 
freq.     814.89  E(vib)   ...       0.05 
freq.     823.89  E(vib)   ...       0.05 
freq.     831.05  E(vib)   ...       0.04 
freq.     841.17  E(vib)   ...       0.04 
freq.     881.71  E(vib)   ...       0.04 
freq.     911.72  E(vib)   ...       0.03 
freq.     922.15  E(vib)   ...       0.03 
freq.     942.71  E(vib)   ...       0.03 
freq.     976.66  E(vib)   ...       0.03 
freq.     986.88  E(vib)   ...       0.02 
freq.    1011.21  E(vib)   ...       0.02 
freq.    1076.02  E(vib)   ...       0.02 
freq.    1077.18  E(vib)   ...       0.02 
freq.    1084.15  E(vib)   ...       0.02 
freq.    1103.74  E(vib)   ...       0.02 
freq.    1117.80  E(vib)   ...       0.01 
freq.    1129.67  E(vib)   ...       0.01 
freq.    1133.06  E(vib)   ...       0.01 
freq.    1171.38  E(vib)   ...       0.01 
freq.    1180.52  E(vib)   ...       0.01 
freq.    1194.67  E(vib)   ...       0.01 
freq.    1207.80  E(vib)   ...       0.01 
freq.    1253.28  E(vib)   ...       0.01 
freq.    1255.66  E(vib)   ...       0.01 
freq.    1279.32  E(vib)   ...       0.01 
freq.    1288.77  E(vib)   ...       0.01 
freq.    1324.84  E(vib)   ...       0.01 
freq.    1366.58  E(vib)   ...       0.01 
freq.    1378.31  E(vib)   ...       0.01 
freq.    1408.20  E(vib)   ...       0.00 
freq.    1416.57  E(vib)   ...       0.00 
freq.    1429.54  E(vib)   ...       0.00 
freq.    1442.35  E(vib)   ...       0.00 
freq.    1452.18  E(vib)   ...       0.00 
freq.    1458.65  E(vib)   ...       0.00 
freq.    1468.83  E(vib)   ...       0.00 
freq.    1489.98  E(vib)   ...       0.00 
freq.    1500.81  E(vib)   ...       0.00 
freq.    1501.80  E(vib)   ...       0.00 
freq.    1503.32  E(vib)   ...       0.00 
freq.    1513.04  E(vib)   ...       0.00 
freq.    1532.54  E(vib)   ...       0.00 
freq.    1544.96  E(vib)   ...       0.00 
freq.    1552.91  E(vib)   ...       0.00 
freq.    1567.91  E(vib)   ...       0.00 
freq.    1754.50  E(vib)   ...       0.00 
freq.    3030.96  E(vib)   ...       0.00 
freq.    3036.05  E(vib)   ...       0.00 
freq.    3093.19  E(vib)   ...       0.00 
freq.    3095.37  E(vib)   ...       0.00 
freq.    3143.14  E(vib)   ...       0.00 
freq.    3176.70  E(vib)   ...       0.00 
freq.    3178.43  E(vib)   ...       0.00 
freq.    3185.70  E(vib)   ...       0.00 
freq.    3189.32  E(vib)   ...       0.00 
freq.    3193.62  E(vib)   ...       0.00 
freq.    3198.06  E(vib)   ...       0.00 
freq.    3201.15  E(vib)   ...       0.00 
freq.    3212.84  E(vib)   ...       0.00 
freq.    3229.38  E(vib)   ...       0.00 

------------
INNER ENERGY
------------

The inner energy is: U= E(el) + E(ZPE) + E(vib) + E(rot) + E(trans)
    E(el)   - is the total energy from the electronic structure calculation
              = E(kin-el) + E(nuc-el) + E(el-el) + E(nuc-nuc)
    E(ZPE)  - the the zero temperature vibrational energy from the frequency calculation
    E(vib)  - the the finite temperature correction to E(ZPE) due to population
              of excited vibrational states
    E(rot)  - is the rotational thermal energy
    E(trans)- is the translational thermal energy

Summary of contributions to the inner energy U:
Electronic energy                ...   -878.19012588 Eh
Zero point energy                ...      0.26344212 Eh     165.31 kcal/mol
Thermal vibrational correction   ...      0.01396292 Eh       8.76 kcal/mol
Thermal rotational correction    ...      0.00141627 Eh       0.89 kcal/mol
Thermal translational correction ...      0.00141627 Eh       0.89 kcal/mol
-----------------------------------------------------------------------
Total thermal energy                   -877.90988830 Eh


Summary of corrections to the electronic energy:
(perhaps to be used in another calculation)
Total thermal correction                  0.01679546 Eh      10.54 kcal/mol
Non-thermal (ZPE) correction              0.26344212 Eh     165.31 kcal/mol
-----------------------------------------------------------------------
Total correction                          0.28023758 Eh     175.85 kcal/mol


--------
ENTHALPY
--------

The enthalpy is H = U + kB*T
                kB is Boltzmann's constant
Total thermal energy              ...   -877.90988830 Eh 
Thermal Enthalpy correction       ...      0.00094421 Eh       0.59 kcal/mol
-----------------------------------------------------------------------
Total Enthalpy                    ...   -877.90894409 Eh


Note: Only C1 symmetry has been detected, increase convergence thresholds 
      if your molecule has a higher symmetry. Symmetry factor of 1.0 is   
      used for the rotational entropy correction. 
 

Note: Rotational entropy computed according to Herzberg 
Infrared and Raman Spectra, Chapter V,1, Van Nostrand Reinhold, 1945 
Point Group:  C1, Symmetry Number:   1  
Rotational constants in cm-1:     0.016824     0.009563     0.006459 

Vibrational entropy computed according to the QRRHO of S. Grimme
Chem.Eur.J. 2012 18 9955 using a reference frequency of 100.0 cm-1


-------
ENTROPY
-------

The entropy contributions are T*S = T*(S(el)+S(vib)+S(rot)+S(trans))
     S(el)   - electronic entropy
     S(vib)  - vibrational entropy
     S(rot)  - rotational entropy
     S(trans)- translational entropy
The entropies will be listed as multiplied by the temperature to get
units of energy

Electronic entropy                ...      0.00000000 Eh      0.00 kcal/mol
Vibrational entropy               ...      0.02430109 Eh     15.25 kcal/mol
Rotational entropy                ...      0.01601481 Eh     10.05 kcal/mol
Translational entropy             ...      0.02025841 Eh     12.71 kcal/mol
-----------------------------------------------------------------------
Final entropy term                ...      0.06057431 Eh     38.01 kcal/mol

In case the symmetry of your molecule has not been determined correctly
or in case you have a reason to use a different symmetry number we print 
out the resulting rotational entropy values for sn=1,12:

 non-linear molecules -----------------------------------
|  sn= 1 | S(rot)=       0.01601481 Eh     10.05 kcal/mol|
|  sn= 2 | S(rot)=       0.01536035 Eh      9.64 kcal/mol|
|  sn= 3 | S(rot)=       0.01497752 Eh      9.40 kcal/mol|
|  sn= 4 | S(rot)=       0.01470590 Eh      9.23 kcal/mol|
|  sn= 5 | S(rot)=       0.01449521 Eh      9.10 kcal/mol|
|  sn= 6 | S(rot)=       0.01432306 Eh      8.99 kcal/mol|
|  sn= 7 | S(rot)=       0.01417752 Eh      8.90 kcal/mol|
|  sn= 8 | S(rot)=       0.01405144 Eh      8.82 kcal/mol|
|  sn= 9 | S(rot)=       0.01394023 Eh      8.75 kcal/mol|
|  sn=10 | S(rot)=       0.01384075 Eh      8.69 kcal/mol|
|  sn=11 | S(rot)=       0.01375076 Eh      8.63 kcal/mol|
|  sn=12 | S(rot)=       0.01366861 Eh      8.58 kcal/mol|
 linear molecules ---------------------------------------
|  Dinfh | S(rot)=       0.01008662 Eh      6.33 kcal/mol|
|  Cinfv | S(rot)=       0.01074107 Eh      6.74 kcal/mol|
 --------------------------------------------------------


-------------------
GIBBS FREE ENERGY
-------------------

The Gibbs free energy is G = H - T*S

Total enthalpy                    ...   -877.90894409 Eh 
Total entropy correction          ...     -0.06057431 Eh    -38.01 kcal/mol
-----------------------------------------------------------------------
Final Gibbs free energy         ...   -877.96951840 Eh

For completeness - the Gibbs free energy minus the electronic energy
G-E(el)                           ...      0.22060748 Eh    138.43 kcal/mol



--------------------------------
SUGGESTED CITATIONS FOR THIS RUN
--------------------------------

Below you find a list of papers that are relevant to this ORCA run
We neither can nor want to force you to cite these papers, but we appreciate if you do
You receive ORCA, which is the product of decades of hard work by many enthusiastic individuals, for free
The only thing we kindly ask in return is that you cite our papers,
We deeply appreciate it, if you show your appreciation for ORCA by not just citing the generic ORCA reference.

Please note that relegating all ORCA citations to the supporting information does *not* help us.
SI sections are not indexed - citations you put there will not count into any citation statistics
But we need these citations in order to attract the funding resources that allow us to do what we are doing

Therefore, if you are a happy ORCA user, please consider citing a few of the papers listed below in the main body of your paper

In addition to the list printed below, the program has created the file 4.bibtex that contains the list in bibtex format
You can import this file easily into all common literature databanks and citation aid programs


List of essential papers. We consider these as the minimum necessary citations

  1. Neese,F.
     Software update: the ORCA program system, version 5.0
     WIRES Comput. Molec. Sci., 2022 12(1)e1606
     doi.org/10.1002/wcms.1606

List of papers to cite with high priority. The work reported in these papers was absolutely
necessary for this run to complete.
Our perspective: the developers of density functionals and basis sets usually get cited in chemistry papers
Good! But without the algorithms to do something with them, the functionals or basis sets would not do anything.
Hence, in our opinion, the algorithm design and method developments papers are equally worthy of getting cited

  1. Neese,F.; Olbrich,G.
     Efficient use of the resolution of the identity approximation in time-dependent density functional calculations with hybrid density functionals
     Chem. Phys. Lett., 2002 362 170-178
     doi.org/10.1016/s0009-2614(02)01053-9
  2. Neese,F.
     An improvement of the resolution of the identity approximation for the formation of the Coulomb matrix
     J. Comp. Chem., 2003 24(14)1740-1747
     doi.org/10.1002/jcc.10318
  3. Neese,F.; Wennmohs,F.; Hansen,A.; Becker,U.
     Efficient, approximate and parallel Hartree-Fock and hybrid DFT calculations. A 'chain-of-spheres' algorithm for the Hartree-Fock exchange
     Chem. Phys., 2009 356(1-3)98-109
     doi.org/10.1016/j.chemphys.2008.10.036
  4. Petrenko,T.; Kossmann,S.; Neese,F.
     Efficient time-dependent density functional theory approximations for hybrid density functionals: Analytical gradients and parallelization
     J. Chem. Phys., 2011 134 054116
     doi.org/10.1063/1.3533441
  5. Bykov,D.; Petrenko,T.; Izsak,R.; Kossmann,S.; Becker,U.; Valeev,E.; Neese,F.
     Efficient implementation of the analytic second derivatives of Hartree-Fock and hybrid DFT energies: a detailed analysis of different approximations
     Molec. Phys., 2015 113 1961-1977
     doi.org/10.1080/00268976.2015.1025114
  6. Garcia-Rates,M.; Neese,F.
     Effect of the Solute Cavity on the Solvation Energy and its Derivatives within the Framework of the Gaussian Charge Scheme
     J. Comput. Chem., 2020 41 922-939
     doi.org/10.1002/jcc.26139
  7. Helmich-Paris,B.; de Souza,B.; Neese,F.; Izsák,R.
     An improved chain of spheres for exchange algorithm
     J. Chem. Phys., 2021 155 104109
     doi.org/doi: 10.1063/5.0058766.
  8. Neese,F.
     The SHARK Integral Generation and Digestion System
     J. Comp. Chem., 2022  1-16
     doi.org/10.1002/jcc.26942

List of suggested additional citations. These are papers that are important in the 'surrounding' of 
of this run, or papers that preceded the highly important papers. If you like your results we are grateful for a citation.

  1. Izsak,R.; Neese,F.
     An overlap fitted chain of spheres exchange method
     J. Chem. Phys., 2011 135 144105
     doi.org/10.1063/1.3646921
  2. Izsak,R.; Hansen,A.; Neese,F.
     The resolution of identity and chain of spheres approximations for the LPNO-CCSD singles Fock term
     Molec. Phys., 2012 110 2413-2417
     doi.org/10.1080/00268976.2012.687466
  3. Neese,F.
     The ORCA program system
     WIRES Comput. Molec. Sci., 2012 2(1)73-78
     doi.org/10.1002/wcms.81
  4. Izsak,R.; Neese,F.; Klopper,W.
     Robust fitting techniques in the chain of spheres approximation to the Fock exchange: The role of the complementary space
     J. Chem. Phys., 2013 139 
     doi.org/10.1063/1.4819264
  5. Neese,F.
     Software update: the ORCA program system, version 4.0
     WIRES Comput. Molec. Sci., 2018 8(1)1-6
     doi.org/10.1002/wcms.1327
  6. Neese,F.; Wennmohs,F.; Becker,U.; Riplinger,C.
     The ORCA quantum chemistry program package
     J. Chem. Phys., 2020 152 Art. No. L224108
     doi.org/10.1063/5.0004608

List of optional additional citations

  1. Neese,F.
     Approximate second-order SCF convergence for spin unrestricted wavefunctions
     Chem. Phys. Lett., 2000 325(1-3)93-98
     doi.org/10.1016/s0009-2614(00)00662-x

Timings for individual modules:

Sum of individual times          ...    96874.822 sec (=1614.580 min)
Startup calculation              ...      301.568 sec (=   5.026 min)   0.3 %
SCF iterations                   ...     2567.625 sec (=  42.794 min)   2.7 %
Property integrals               ...       35.397 sec (=   0.590 min)   0.0 %
Property calculations            ...        0.772 sec (=   0.013 min)   0.0 %
CIS module                       ...     5523.904 sec (=  92.065 min)   5.7 %
Geometry relaxation              ...        1.747 sec (=   0.029 min)   0.0 %
Numerical frequency calculation  ...    88443.809 sec (=1474.063 min)  91.3 %
                             ****ORCA TERMINATED NORMALLY****
TOTAL RUN TIME: 1 days 2 hours 48 minutes 20 seconds 630 msec
