
                                 *****************
                                 * O   R   C   A *
                                 *****************

                                            #,                                       
                                            ###                                      
                                            ####                                     
                                            #####                                    
                                            ######                                   
                                           ########,                                 
                                     ,,################,,,,,                         
                               ,,#################################,,                 
                          ,,##########################################,,             
                       ,#########################################, ''#####,          
                    ,#############################################,,   '####,        
                  ,##################################################,,,,####,       
                ,###########''''           ''''###############################       
              ,#####''   ,,,,##########,,,,          '''####'''          '####       
            ,##' ,,,,###########################,,,                        '##       
           ' ,,###''''                  '''############,,,                           
         ,,##''                                '''############,,,,        ,,,,,,###''
      ,#''                                            '''#######################'''  
     '                                                          ''''####''''         
             ,#######,   #######,   ,#######,      ##                                
            ,#'     '#,  ##    ##  ,#'     '#,    #''#        ,####,   ,####,        
            ##       ##  ##   ,#'  ##            #'  '#       #'       #'  '#        
            ##       ##  #######   ##           ,######,      #####,   #    #        
            '#,     ,#'  ##    ##  '#,     ,#' ,#      #,     #,   #   #,  ,#        
             '#######'   ##     ##  '#######'  #'      '#     '####' # '####'        



                #########################################################
                #                        -***-                          #
                #          Department of theory and spectroscopy        #
                #                                                       #
                #                      Frank Neese                      #
                #                                                       #
                #     Directorship, Architecture, Infrastructure        #
                #                    SHARK, DRIVERS                     #
                #        Core code/Algorithms in most modules           #
                #                                                       #
                #        Max Planck Institute fuer Kohlenforschung      #
                #                Kaiser Wilhelm Platz 1                 #
                #                 D-45470 Muelheim/Ruhr                 #
                #                      Germany                          #
                #                                                       #
                #                  All rights reserved                  #
                #                        -***-                          #
                #########################################################


                         Program Version 6.0.1  -  RELEASE   -


 With contributions from (in alphabetic order):
[Max-Planck-Institut fuer Kohlenforschung]                               
  Daniel Aravena         : Magnetic Suceptibility                        
  Michael Atanasov       : Ab Initio Ligand Field Theory (pilot matlab implementation)
  Alexander A. Auer      : GIAO ZORA, VPT2 properties, NMR spectrum      
  Ute Becker             : All parallelization in ORCA, NUMFREQ, NUMCALC 
  Giovanni Bistoni       : ED, misc. LED, open-shell LED, HFLD           
  Martin Brehm           : Molecular dynamics                            
  Dmytro Bykov           : pre 5.0 version of the SCF Hessian            
  Marcos Casanova-Páez   : Triplet and SCS-CIS(D). UHF-(DLPNO)-IP/EA/STEOM-CCSD. UHF-CVS-IP/STEOM-CCSD   
  Vijay G. Chilkuri      : MRCI spin determinant printing, contributions to CSF-ICE 
  Pauline Colinet        : FMM embedding                                 
  Dipayan Datta          : RHF DLPNO-CCSD density                        
  Achintya Kumar Dutta   : EOM-CC, STEOM-CC                              
  Nicolas Foglia         : Exact transition moments, OPA infrastructure, MCD improvements    
  Dmitry Ganyushin       : Spin-Orbit,Spin-Spin,Magnetic field MRCI      
  Miquel Garcia-Rates    : C-PCM and meta-GGA Hessian, CCSD/C-PCM, Gaussian charge scheme 
  Tiago L. C. Gouveia    : GS-ROHF, GS-ROCIS                             
  Yang Guo               : DLPNO-NEVPT2, F12-NEVPT2, CIM, IAO-localization        
  Andreas Hansen         : Spin unrestricted coupled pair/coupled cluster methods 
  Ingolf Harden          : AUTO-CI MPn and infrastructure                
  Benjamin Helmich-Paris : MC-RPA, TRAH-(SCF,CASSCF), AVAS, COSX integrals, SCF dyn. polar. 
  Lee Huntington         : MR-EOM, pCC                                   
  Robert Izsak           : Overlap fitted RIJCOSX, COSX-SCS-MP3, EOM     
  Riya Kayal             : Wick's Theorem for AUTO-CI, AUTO-CI UHF-CCSDT 
  Emily Kempfer          : AUTO-CI, RHF CISDT and CCSDT                  
  Christian Kollmar      : KDIIS, OOCD, Brueckner-CCSD(T), CCSD density, CASPT2, CASPT2-K, improved NEVPT2 
  Axel Koslowski         : Symmetry handling                             
  Simone Kossmann        : meta-GGA functionals, TD-DFT gradient, OOMP2, (MP2 Hessian; deprecated post 5.0) 
  Lucas Lang             : DCDCAS                                        
  Marvin Lechner         : AUTO-CI (C++ implementation), FIC-MRCC        
  Spencer Leger          : CASSCF response                               
  Dagmar Lenk            : GEPOL surface, SMD, ORCA-2-JSON               
  Dimitrios Liakos       : Extrapolation schemes; Compound Job, initial MDCI parallelization 
  Dimitrios Manganas     : Further ROCIS development; embedding schemes. LFT, Crystal Embedding 
  Dimitrios Pantazis     : SARC Basis sets                               
  Anastasios Papadopoulos: AUTO-CI, single reference methods and gradients 
  Taras Petrenko         : pre 6.0 DFT Hessian and TD-DFT gradient, (ASA, deprecated), ECA, 1-Electron XAS/XES, NRVS 
  Peter Pinski           : DLPNO-MP2, DLPNO-MP2 Gradient                 
  Christoph Reimann      : Effective Core Potentials                     
  Marius Retegan         : Local ZFS, SOC                                
  Christoph Riplinger    : Optimizer, TS searches, QM/MM, DLPNO-CCSD(T), (RO)-DLPNO pert. Triples 
  Michael Roemelt        : Original ROCIS implementation                 
  Masaaki Saitow         : Open-shell DLPNO-CCSD energy and density      
  Barbara Sandhoefer     : DKH picture change effects                    
  Kantharuban Sivalingam : CASSCF convergence/infrastructure, NEVPT2 and variants, FIC-MRCI 
  Bernardo de Souza      : ESD, SOC TD-DFT                               
  Georgi L. Stoychev     : AutoAux, RI-MP2 NMR, DLPNO-MP2 response, X2C  
  Van Anh Tran           : RI-MP2 g-tensors                              
  Willem Van den Heuvel  : Paramagnetic NMR                              
  Zikuan Wang            : NOTCH, Electric field optimization            
  Frank Wennmohs         : Technical directorship and infrastructure     
  Hang Xu                : AUTO-CI-Response properties                   
                                                                         
[FACCTs GmbH]                                                            
  Markus Bursch, Miquel Garcia-Rates, Christoph Riplinger, Bernardo de Souza, Georgi L. Stoychev 
                                                                 
  APM, Basis sets (HGBS, AHGBS, def-TZVP (Ac-Lr), def2-XVPD (La-Lu)), CI-OPT, improved COSX, DLPNO-Multilevel,           
  DOCKER, DRACO, updates on ESD, GOAT, IRC, LR-CPCM, MBIS, meta-GGA TD-DFT gradient, ML-optimized integration grids, 
  MM, NACMEs, nearIR, NEB, NEB-TS, NL-DFT gradient (VV10), 2- and 3-layer-ONIOM, interface openCOSMO-RS, QMMM,   
  Crystal-QMMM, SF, symmetry and pop. for TD-DFT, r2SCAN hybrids, SOLVATOR                                   
                                                                         
[Other institutions]                                                     
  V. Asgeirsson          : NEB                                           
  Christoph Bannwarth    : sTDA-DFT, sTD-DFT, PBEh-3c, B97-3c, D3        
  Sebastian Ehlert       : rSCAN, r2SCAN, r2SCAN-3c, D4, dhf basis sets  
  Marvin Friede          : D4 for Fr, Ra, Ac-Lr                          
  Lars Goerigk           : TD-DFT with DH, B97 family of functionals     
  Stefan Grimme          : VdW corrections, initial TS optimization, DFT functionals, gCP, sTDA/sTD-DF 
  Waldemar Hujo          : DFT-NL                                        
  H. Jonsson             : NEB                                           
  Holger Kruse           : gCP                                           
  Marcel Mueller         : wB97X-3c, vDZP basis set                      
  Hagen Neugebauer       : wr2SCAN                                       
  Tobias Risthaus        : range-separated hybrid DFT                    
  Lukas Wittmann         : regularized MP2, r2SCAN double-hybrids, wr2SCAN        
                                                                         
We gratefully acknowledge several colleagues who have allowed us to      
interface, adapt or use parts of their codes:                            
  Ed Valeev, F. Pavosevic, A. Kumar             : LibInt (2-el integral package), F12 methods 
  Garnet Chan, S. Sharma, J. Yang, R. Olivares  : DMRG                   
  Ulf Ekstrom                                   : XCFun DFT Library      
  Mihaly Kallay                                 : mrcc  (arbitrary order and MRCC methods)
  Frank Weinhold                                : gennbo (NPA and NBO analysis)           
  Simon Mueller                                 : openCOSMO-RS                            
  Christopher J. Cramer and Donald G. Truhlar   : smd solvation model                     
  S Lehtola, MJT Oliveira, MAL Marques          : LibXC Library                           
  Liviu Ungur et al                             : ANISO software                          


 Your calculation uses the libint2 library for the computation of 2-el integrals
 For citations please refer to: http://libint.valeyev.net

 Your ORCA version has been built with support for libXC version: 6.2.2
 For citations please refer to: https://libxc.gitlab.io

 This ORCA versions uses:
   CBLAS   interface :  Fast vector & matrix operations
   LAPACKE interface :  Fast linear algebra routines
   SCALAPACK package :  Parallel linear algebra routines
   Shared memory     :  Shared parallel matrices
   BLAS/LAPACK       :  OpenBLAS 0.3.27  USE64BITINT DYNAMIC_ARCH NO_AFFINITY Zen SINGLE_THREADED
        Core in use  :  Zen
   Copyright (c) 2011-2014, The OpenBLAS Project


Warning: RI is on but no J-basis has been assigned. Assigning Def2/J (nothing to worry about!)
================================================================================

----- Orbital basis set information -----
Your calculation utilizes the basis: 6-311G*
   H, Li - Ne  : R. Krishnan, J. S. Binkley, R. Seeger and J. A. Pople, J. Chem. Phys. 72, 650 (1980).
   Na - Ar     : A. D. McLean and G. S. Chandler J. Chem. Phys. 72, 5639, (1980).
   K  - Ca     : J.-P. Blaudeau, M. P. McGrath, L. A. Curtiss and L. Radom, J. Chem. Phys. 107, 5016 (1997).
   Ga - Kr     : L. A. Curtiss, M. P. McGrath, J.-P. Blandeau, N. E. Davis, R. C. Binning and L. Radom, J. Chem. Phys. 103, 6104 (1995).
   Pol./Diff.
   H, Li - Cl  : T. Clark, J. Chandrasekhar and P. v. R. Schleyer, J. Comp. Chem. 4, 294 (1983).
   H - Ne      : M. J. Frisch, J. A. Pople and J. S. Binkley, J. Chem. Phys. 80, 3265 (1984).

----- AuxJ basis set information -----
Your calculation utilizes the auxiliary basis: def2/J
   F. Weigend, Phys. Chem. Chem. Phys. 8, 1057 (2006).

================================================================================
                                        WARNINGS
                       Please study these warnings very carefully!
================================================================================


WARNING: Geometry Optimization
  ===> : Switching off AutoStart
         For restart on a previous wavefunction, please use MOREAD

================================================================================
                                       INPUT FILE
================================================================================
NAME = 2.inp
|  1> ! B3LYP/G OPT FREQ 6-311G* CPCM(Water)
|  2> 
|  3> * xyz 0 1 
|  4> C  -3.43521304737168220456 -0.95896738516231905258 -0.44094104514160137320
|  5> C  -2.88457870351700407241 -1.86713176532625291237 -1.34229587741004596779
|  6> C  -1.54633571587188400898 -1.81129190465157363654 -1.63618957058193803533
|  7> C  -2.63652433731567281683 -0.02936813524948322929 0.18968218169220152358
|  8> C  -1.24646438925521141350 0.01482894352460517595 -0.04323157859356707711
|  9> O  -3.25938696545325790055 0.83696398815892059098 1.07289384524012443300
| 10> C  -0.71184370693295140331 -0.87451450479615266964 -1.00708293903447199114
| 11> C  0.67164880624064471348 -0.80404689107350502120 -1.34339243952531850468
| 12> C  1.49232156967741635967 0.10173823719757724149 -0.76620847953612947201
| 13> C  -0.35285449229853260711 0.91553516712123950150 0.63881431836669844149
| 14> C  1.00616054759133266572 0.97788509192168071582 0.24306155903834603116
| 15> N  -0.81670283634102802672 1.66502668547431520452 1.65039941598789585697
| 16> C  -0.01252984556917291492 2.51413465579298955888 2.24331674253751467418
| 17> C  1.32622231510095955898 2.69337820441584252507 1.88979350440449311854
| 18> C  1.83897479103964478497 1.90448652897890680080 0.88962767037215328969
| 19> C  -3.09639841215461775192 2.17118010470902955689 0.85982099712492177090
| 20> O  -2.70914977805041434777 2.63200364731370672899 -0.20688914531489088766
| 21> N  -3.54202468387269675532 2.89394250265393315757 1.89068217185903386657
| 22> C  -3.89512356076194210530 2.27345096794957512998 3.15096130605254964863
| 23> C  -3.43101184198231301536 4.33492645639773854782 1.86739539474579552270
| 24> H  -3.10989593658054808145 4.64008636392709838958 0.87353394474348577958
| 25> H  -2.69739948183943578641 4.67013568337696316490 2.60167270539155470743
| 26> H  -4.40036338035293184134 4.78058886851284725594 2.08937656319768283453
| 27> H  -4.56692406864967637148 1.43526400623576666504 2.97708348138864975496
| 28> H  -4.39161419072103242911 3.01597513802801842075 3.76823781200569829508
| 29> H  -3.00228420882155999649 1.90442578000004836269 3.65898544162765881893
| 30> H  -1.11448824989742822922 -2.48505733173217091547 -2.35970500317780906840
| 31> H  -4.49277503779968334641 -0.96057753454650351976 -0.22869122402172847863
| 32> H  -3.52336533868374157663 -2.59184068372228271215 -1.82121843079551926081
| 33> H  1.04282072444646045639 -1.48908033339610601509 -2.09020877429063745012
| 34> H  2.53384657850448480332 0.17212228818244268425 -1.04200780574481655094
| 35> H  -0.45497142574664439785 3.08140079069450578686 3.05111059368421866367
| 36> H  1.93163973189951132525 3.42163076244377339918 2.40423268122427202798
| 37> H  2.87473858250746783227 1.97860561524424438673 0.59175996621907722695
| 38> *
| 39> 
| 40>                          ****END OF INPUT****
================================================================================

                       *****************************
                       * Geometry Optimization Run *
                       *****************************

Geometry optimization settings:
Update method            Update   .... BFGS
Choice of coordinates    CoordSys .... (2022) Redundant Internals
Initial Hessian          InHess   .... Almloef's Model
Max. no of cycles        MaxIter  .... 102

Convergence Tolerances:
Energy Change            TolE     ....  5.0000e-06 Eh
Max. Gradient            TolMAXG  ....  3.0000e-04 Eh/bohr
RMS Gradient             TolRMSG  ....  1.0000e-04 Eh/bohr
Max. Displacement        TolMAXD  ....  4.0000e-03 bohr
RMS Displacement         TolRMSD  ....  2.0000e-03 bohr
Strict Convergence                .... False

------------------------------------------------------------------------------
                        ORCA OPTIMIZATION COORDINATE SETUP
------------------------------------------------------------------------------

The optimization will be done in redundant internal coordinates (2022)
Making redundant internal coordinates   ...  (2022 redundants) done
Evaluating the initial hessian          ...  (Almloef) done
Evaluating the coordinates              ...  done
Calculating the B-matrix                .... done
Calculating the G-matrix                .... done
Diagonalizing the G-matrix              .... done
Small eigenvalue found = 5.870e-03
Small eigenvalue found = 1.259e-02
Small eigenvalue found = 2.426e-02
The first mode is                       ....   78
The number of degrees of freedom        ....   96

    -----------------------------------------------------------------
                    Redundant Internal Coordinates


    -----------------------------------------------------------------
         Definition                    Initial Value    Approx d2E/dq
    -----------------------------------------------------------------
      1. B(C   1,C   0)                  1.3930         0.617987   
      2. B(C   2,C   1)                  1.3713         0.669296   
      3. B(C   3,C   0)                  1.3783         0.652208   
      4. B(C   4,C   3)                  1.4101         0.580258   
      5. B(O   5,C   3)                  1.3851         0.569724   
      6. B(C   6,C   4)                  1.4162         0.567362   
      7. B(C   6,C   2)                  1.4035         0.594650   
      8. B(C   7,C   6)                  1.4255         0.548354   
      9. B(C   8,C   7)                  1.3517         0.719191   
     10. B(C   9,C   4)                  1.4405         0.519031   
     11. B(C  10,C   9)                  1.4168         0.566136   
     12. B(C  10,C   8)                  1.4222         0.555122   
     13. B(N  11,C   9)                  1.3417         0.668209   
     14. B(C  12,N  11)                  1.3112         0.747490   
     15. B(C  13,C  12)                  1.3962         0.610735   
     16. B(C  14,C  13)                  1.3732         0.664644   
     17. B(C  14,C  10)                  1.4036         0.594251   
     18. B(C  15,O   5)                  1.3609         0.622693   
     19. B(O  16,C  15)                  1.2248         1.026610   
     20. B(N  17,C  15)                  1.3355         0.683561   
     21. B(C  18,N  17)                  1.4484         0.451472   
     22. B(C  19,N  17)                  1.4454         0.456480   
     23. B(H  20,C  19)                  1.0881         0.362600   
     24. B(H  21,C  19)                  1.0907         0.359121   
     25. B(H  22,C  19)                  1.0897         0.360444   
     26. B(H  23,C  18)                  1.0882         0.362533   
     27. B(H  24,C  18)                  1.0858         0.365753   
     28. B(H  25,C  18)                  1.0915         0.358086   
     29. B(H  26,C   2)                  1.0789         0.375150   
     30. B(H  27,C   0)                  1.0787         0.375429   
     31. B(H  28,C   1)                  1.0782         0.375987   
     32. B(H  29,C   7)                  1.0792         0.374610   
     33. B(H  30,C   8)                  1.0797         0.373960   
     34. B(H  31,C  12)                  1.0817         0.371248   
     35. B(H  32,H  21)                  4.7985         0.000000   
     36. B(H  32,C  13)                  1.0777         0.376685   
     37. B(H  33,C  14)                  1.0803         0.373178   
     38. A(C   1,C   0,C   3)          120.4447         0.437787   
     39. A(C   3,C   0,H  27)          118.6276         0.358482   
     40. A(C   1,C   0,H  27)          120.9250         0.355215   
     41. A(C   2,C   1,H  28)          120.6862         0.360155   
     42. A(C   0,C   1,C   2)          119.8614         0.439835   
     43. A(C   0,C   1,H  28)          119.4336         0.355304   
     44. A(C   1,C   2,H  26)          120.5934         0.360019   
     45. A(C   1,C   2,C   6)          120.7561         0.436792   
     46. A(C   6,C   2,H  26)          118.6501         0.352861   
     47. A(C   4,C   3,O   5)          121.9378         0.419742   
     48. A(C   0,C   3,C   4)          121.1171         0.432850   
     49. A(C   0,C   3,O   5)          116.9366         0.428609   
     50. A(C   3,C   4,C   9)          123.5673         0.415526   
     51. A(C   3,C   4,C   6)          117.7003         0.422173   
     52. A(C   6,C   4,C   9)          118.7317         0.413869   
     53. A(C   3,O   5,C  15)          117.3546         0.422303   
     54. A(C   4,C   6,C   7)          119.7276         0.417935   
     55. A(C   2,C   6,C   7)          120.2854         0.421451   
     56. A(C   2,C   6,C   4)          119.9840         0.424025   
     57. A(C   6,C   7,H  29)          117.7524         0.347980   
     58. A(C   6,C   7,C   8)          121.4414         0.436072   
     59. A(C   8,C   7,H  29)          120.7980         0.364375   
     60. A(C   7,C   8,H  30)          121.3506         0.364267   
     61. A(C  10,C   8,H  30)          118.0903         0.348598   
     62. A(C   7,C   8,C  10)          120.5512         0.437037   
     63. A(C   4,C   9,C  10)          119.3602         0.413710   
     64. A(C  10,C   9,N  11)          121.1725         0.429989   
     65. A(C   4,C   9,N  11)          119.4592         0.423350   
     66. A(C   9,C  10,C  14)          118.0015         0.423810   
     67. A(C   8,C  10,C  14)          122.0565         0.422325   
     68. A(C   8,C  10,C   9)          119.9340         0.418688   
     69. A(C   9,N  11,C  12)          119.3832         0.449137   
     70. A(N  11,C  12,H  31)          115.2417         0.363944   
     71. A(N  11,C  12,C  13)          123.8291         0.444808   
     72. A(C  13,C  12,H  31)          120.9279         0.353832   
     73. A(C  12,C  13,H  32)          120.2995         0.354705   
     74. A(C  12,C  13,C  14)          117.9509         0.438347   
     75. A(C  14,C  13,H  32)          121.7432         0.359841   
     76. A(C  10,C  14,H  33)          119.1534         0.352506   
     77. A(C  10,C  14,C  13)          119.5518         0.436190   
     78. A(C  13,C  14,H  33)          121.2941         0.359268   
     79. A(O  16,C  15,N  17)          125.0377         0.477947   
     80. A(O   5,C  15,N  17)          111.7003         0.436332   
     81. A(O   5,C  15,O  16)          122.8932         0.469822   
     82. A(C  18,N  17,C  19)          117.3745         0.383747   
     83. A(C  15,N  17,C  19)          120.0959         0.412760   
     84. A(C  15,N  17,C  18)          121.4067         0.411952   
     85. A(H  24,C  18,H  25)          109.9159         0.291295   
     86. A(H  23,C  18,H  25)          108.5992         0.290891   
     87. A(N  17,C  18,H  25)          110.5110         0.332295   
     88. A(H  23,C  18,H  24)          109.5913         0.291861   
     89. A(N  17,C  18,H  24)          108.2508         0.333465   
     90. A(N  17,C  18,H  23)          109.9648         0.332976   
     91. A(H  21,C  19,H  22)          109.6009         0.290759   
     92. A(H  20,C  19,H  22)          109.5040         0.291199   
     93. A(N  17,C  19,H  22)          109.6396         0.333266   
     94. A(H  20,C  19,H  21)          109.2811         0.291031   
     95. A(N  17,C  19,H  21)          110.3152         0.333063   
     96. A(N  17,C  19,H  20)          108.4794         0.333596   
     97. D(H  28,C   1,C   0,C   3)    179.5782         0.026417   
     98. D(C   2,C   1,C   0,C   3)     -1.9887         0.026417   
     99. D(H  28,C   1,C   0,H  27)     -1.0255         0.026417   
    100. D(C   2,C   1,C   0,H  27)    177.4076         0.026417   
    101. D(C   6,C   2,C   1,C   0)      2.0159         0.031324   
    102. D(H  26,C   2,C   1,C   0)   -177.7318         0.031324   
    103. D(C   6,C   2,C   1,H  28)   -179.5710         0.031324   
    104. D(H  26,C   2,C   1,H  28)      0.6813         0.031324   
    105. D(O   5,C   3,C   0,C   1)   -179.9148         0.029632   
    106. D(C   4,C   3,C   0,H  27)    179.6351         0.029632   
    107. D(C   4,C   3,C   0,C   1)     -0.9549         0.029632   
    108. D(O   5,C   3,C   0,H  27)      0.6752         0.029632   
    109. D(C   6,C   4,C   3,O   5)   -177.3618         0.023133   
    110. D(C   9,C   4,C   3,C   0)   -176.5975         0.023133   
    111. D(C   9,C   4,C   3,O   5)      2.3099         0.023133   
    112. D(C   6,C   4,C   3,C   0)      3.7309         0.023133   
    113. D(C  15,O   5,C   3,C   4)     56.3441         0.023559   
    114. D(C  15,O   5,C   3,C   0)   -124.7052         0.023559   
    115. D(C   7,C   6,C   4,C   9)     -3.9804         0.022073   
    116. D(C   7,C   6,C   4,C   3)    175.7076         0.022073   
    117. D(C   2,C   6,C   4,C   9)    176.6454         0.022073   
    118. D(C   2,C   6,C   4,C   3)     -3.6665         0.022073   
    119. D(C   7,C   6,C   2,H  26)      1.2458         0.024354   
    120. D(C   7,C   6,C   2,C   1)   -178.5067         0.024354   
    121. D(C   4,C   6,C   2,H  26)   -179.3836         0.024354   
    122. D(C   4,C   6,C   2,C   1)      0.8639         0.024354   
    123. D(H  29,C   7,C   6,C   4)   -179.2992         0.020566   
    124. D(H  29,C   7,C   6,C   2)      0.0730         0.020566   
    125. D(C   8,C   7,C   6,C   4)     -0.3366         0.020566   
    126. D(C   8,C   7,C   6,C   2)    179.0356         0.020566   
    127. D(C  10,C   8,C   7,C   6)      2.7637         0.036600   
    128. D(H  30,C   8,C   7,H  29)      0.6573         0.036600   
    129. D(H  30,C   8,C   7,C   6)   -178.2738         0.036600   
    130. D(C  10,C   8,C   7,H  29)   -178.3052         0.036600   
    131. D(N  11,C   9,C   4,C   6)   -173.1052         0.018371   
    132. D(N  11,C   9,C   4,C   3)      7.2263         0.018371   
    133. D(C  10,C   9,C   4,C   6)      5.8730         0.018371   
    134. D(C  10,C   9,C   4,C   3)   -173.7955         0.018371   
    135. D(C  14,C  10,C   9,N  11)     -3.6103         0.021974   
    136. D(C  14,C  10,C   9,C   4)    177.4295         0.021974   
    137. D(C   8,C  10,C   9,N  11)    175.3842         0.021974   
    138. D(C   8,C  10,C   9,C   4)     -3.5760         0.021974   
    139. D(C  14,C  10,C   8,H  30)     -0.8090         0.021095   
    140. D(C  14,C  10,C   8,C   7)    178.1867         0.021095   
    141. D(C   9,C  10,C   8,H  30)   -179.7614         0.021095   
    142. D(C   9,C  10,C   8,C   7)     -0.7658         0.021095   
    143. D(C  12,N  11,C   9,C  10)      3.1194         0.033153   
    144. D(C  12,N  11,C   9,C   4)   -177.9214         0.033153   
    145. D(H  31,C  12,N  11,C   9)   -179.8420         0.042405   
    146. D(C  13,C  12,N  11,C   9)     -0.2439         0.042405   
    147. D(H  32,C  13,C  12,H  31)     -1.5734         0.025764   
    148. D(H  32,C  13,C  12,N  11)    178.8503         0.025764   
    149. D(C  14,C  13,C  12,H  31)    177.5221         0.025764   
    150. D(C  14,C  13,C  12,N  11)     -2.0541         0.025764   
    151. D(H  33,C  14,C  13,H  32)      0.7964         0.030857   
    152. D(H  33,C  14,C  13,C  12)   -178.2853         0.030857   
    153. D(C  10,C  14,C  13,H  32)   -179.5018         0.030857   
    154. D(C  10,C  14,C  13,C  12)      1.4165         0.030857   
    155. D(H  33,C  14,C  10,C   9)   -179.0451         0.024320   
    156. D(H  33,C  14,C  10,C   8)      1.9831         0.024320   
    157. D(C  13,C  14,C  10,C   9)      1.2467         0.024320   
    158. D(C  13,C  14,C  10,C   8)   -177.7251         0.024320   
    159. D(O  16,C  15,O   5,C   3)     17.3839         0.028466   
    160. D(N  17,C  15,O   5,C   3)   -169.2718         0.028466   
    161. D(C  19,N  17,C  15,O  16)     -8.1263         0.038486   
    162. D(C  19,N  17,C  15,O   5)    178.7003         0.038486   
    163. D(C  18,N  17,C  15,O  16)   -175.6939         0.038486   
    164. D(C  18,N  17,C  15,O   5)     11.1326         0.038486   
    165. D(H  25,C  18,N  17,C  15)     69.5546         0.017389   
    166. D(H  24,C  18,N  17,C  19)     22.0819         0.017389   
    167. D(H  24,C  18,N  17,C  15)   -170.0258         0.017389   
    168. D(H  23,C  18,N  17,C  19)    141.7806         0.017389   
    169. D(H  23,C  18,N  17,C  15)    -50.3271         0.017389   
    170. D(H  22,C  19,N  17,C  15)    128.4608         0.017783   
    171. D(H  21,C  19,N  17,C  18)     57.3115         0.017783   
    172. D(H  21,C  19,N  17,C  15)   -110.7469         0.017783   
    173. D(H  20,C  19,N  17,C  18)    176.9793         0.017783   
    174. D(H  20,C  19,N  17,C  15)      8.9210         0.017783   
    -----------------------------------------------------------------

Number of atoms                         .... 34
Number of degrees of freedom            .... 174


         *************************************************************
         *                GEOMETRY OPTIMIZATION CYCLE   1            *
         *************************************************************
---------------------------------
CARTESIAN COORDINATES (ANGSTROEM)
---------------------------------
  C     -3.435213   -0.958967   -0.440941
  C     -2.884579   -1.867132   -1.342296
  C     -1.546336   -1.811292   -1.636190
  C     -2.636524   -0.029368    0.189682
  C     -1.246464    0.014829   -0.043232
  O     -3.259387    0.836964    1.072894
  C     -0.711844   -0.874515   -1.007083
  C      0.671649   -0.804047   -1.343392
  C      1.492322    0.101738   -0.766208
  C     -0.352854    0.915535    0.638814
  C      1.006161    0.977885    0.243062
  N     -0.816703    1.665027    1.650399
  C     -0.012530    2.514135    2.243317
  C      1.326222    2.693378    1.889794
  C      1.838975    1.904487    0.889628
  C     -3.096398    2.171180    0.859821
  O     -2.709150    2.632004   -0.206889
  N     -3.542025    2.893943    1.890682
  C     -3.895124    2.273451    3.150961
  C     -3.431012    4.334926    1.867395
  H     -3.109896    4.640086    0.873534
  H     -2.697399    4.670136    2.601673
  H     -4.400363    4.780589    2.089377
  H     -4.566924    1.435264    2.977083
  H     -4.391614    3.015975    3.768238
  H     -3.002284    1.904426    3.658985
  H     -1.114488   -2.485057   -2.359705
  H     -4.492775   -0.960578   -0.228691
  H     -3.523365   -2.591841   -1.821218
  H      1.042821   -1.489080   -2.090209
  H      2.533847    0.172122   -1.042008
  H     -0.454971    3.081401    3.051111
  H      1.931640    3.421631    2.404233
  H      2.874739    1.978606    0.591760

----------------------------
CARTESIAN COORDINATES (A.U.)
----------------------------
  NO LB      ZA    FRAG     MASS         X           Y           Z
   0 C     6.0000    0    12.011   -6.491612   -1.812186   -0.833258
   1 C     6.0000    0    12.011   -5.451064   -3.528368   -2.536572
   2 C     6.0000    0    12.011   -2.922151   -3.422846   -3.091950
   3 C     6.0000    0    12.011   -4.982309   -0.055498    0.358447
   4 C     6.0000    0    12.011   -2.355476    0.028023   -0.081696
   5 O     8.0000    0    15.999   -6.159349    1.581633    2.027476
   6 C     6.0000    0    12.011   -1.345190   -1.652593   -1.903111
   7 C     6.0000    0    12.011    1.269232   -1.519428   -2.538644
   8 C     6.0000    0    12.011    2.820079    0.192257   -1.447924
   9 C     6.0000    0    12.011   -0.666798    1.730111    1.207184
  10 C     6.0000    0    12.011    1.901368    1.847935    0.459320
  11 N     7.0000    0    14.007   -1.543345    3.146444    3.118803
  12 C     6.0000    0    12.011   -0.023678    4.751026    4.239254
  13 C     6.0000    0    12.011    2.506197    5.089747    3.571192
  14 C     6.0000    0    12.011    3.475159    3.598958    1.681153
  15 C     6.0000    0    12.011   -5.851345    4.102936    1.624826
  16 O     8.0000    0    15.999   -5.119551    4.973766   -0.390964
  17 N     7.0000    0    14.007   -6.693457    5.468759    3.572872
  18 C     6.0000    0    12.011   -7.360717    4.296200    5.954454
  19 C     6.0000    0    12.011   -6.483673    8.191824    3.528866
  20 H     1.0000    0     1.008   -5.876852    8.768492    1.650740
  21 H     1.0000    0     1.008   -5.097346    8.825277    4.916449
  22 H     1.0000    0     1.008   -8.315482    9.034004    3.948349
  23 H     1.0000    0     1.008   -8.630236    2.712256    5.625872
  24 H     1.0000    0     1.008   -8.298948    5.699367    7.120937
  25 H     1.0000    0     1.008   -5.673495    3.598843    6.914480
  26 H     1.0000    0     1.008   -2.106078   -4.696078   -4.459196
  27 H     1.0000    0     1.008   -8.490114   -1.815228   -0.432164
  28 H     1.0000    0     1.008   -6.658196   -4.897869   -3.441604
  29 H     1.0000    0     1.008    1.970646   -2.813954   -3.949922
  30 H     1.0000    0     1.008    4.788276    0.325264   -1.969109
  31 H     1.0000    0     1.008   -0.859771    5.823004    5.765763
  32 H     1.0000    0     1.008    3.650270    6.465945    4.543341
  33 H     1.0000    0     1.008    5.432469    3.739023    1.118264

--------------------------------
INTERNAL COORDINATES (ANGSTROEM)
--------------------------------
 C      0   0   0     0.000000000000     0.00000000     0.00000000
 C      1   0   0     1.392982862667     0.00000000     0.00000000
 C      2   1   0     1.371271631336   119.86135813     0.00000000
 C      1   2   3     1.378312038412   120.44469984   358.01128183
 C      4   1   2     1.410130795602   121.11706464   359.04511863
 O      4   1   2     1.385118061469   116.93661230   180.08521658
 C      3   2   1     1.403461422241   120.75605776     2.01592523
 C      7   3   2     1.425524920411   120.28535627   181.49325647
 C      8   7   3     1.351699599361   121.44135654   179.03560330
 C      5   4   1     1.440484972058   123.56726407   183.40253614
 C     10   5   4     1.416837901203   119.36020221   186.20454480
 N     10   5   4     1.341714288544   119.45924287     7.22632457
 C     12  10   5     1.311193921763   119.38317854   182.07857280
 C     13  12  10     1.396196360589   123.82914936   359.75609476
 C     14  13  12     1.373170372794   117.95088129   357.94586173
 C      6   4   1     1.360918055128   117.35464594   235.29477422
 O     16   6   4     1.224822587160   122.89320072    17.38390039
 N     16   6   4     1.335530987848   111.70027706   190.72817581
 C     18  16   6     1.448444702978   121.40665207    11.13257238
 C     18  16   6     1.445441413548   120.09592002   178.70025001
 H     20  18  16     1.088116986204   108.47935821     8.92096616
 H     20  18  16     1.090740798602   110.31523425   249.25312138
 H     20  18  16     1.089739890828   109.63955957   128.46082851
 H     19  18  16     1.088166716590   109.96482055   309.67289667
 H     19  18  16     1.085760274457   108.25075443   189.97415455
 H     19  18  16     1.091526554895   110.51103586    69.55458062
 H      3   2   1     1.078854330205   120.59340567   182.26822126
 H      1   2   3     1.078651909906   120.92497594   177.40755943
 H      2   1   3     1.078247742317   119.43364167   181.56694599
 H      8   7   3     1.079246981852   117.75241669     0.07302507
 H      9   8   7     1.079719188948   121.35063626   181.72615445
 H     13  12  10     1.081700663597   115.24173320   180.15796817
 H     14  13  12     1.077742874476   120.29951510   178.85030953
 H     15  14  13     1.080289516677   121.29411334   181.71465696

---------------------------
INTERNAL COORDINATES (A.U.)
---------------------------
 C      0   0   0     0.000000000000     0.00000000     0.00000000
 C      1   0   0     2.632356119687     0.00000000     0.00000000
 C      2   1   0     2.591327838441   119.86135813     0.00000000
 C      1   2   3     2.604632279686   120.44469984   358.01128183
 C      4   1   2     2.664761016696   121.11706464   359.04511863
 O      4   1   2     2.617493799324   116.93661230   180.08521658
 C      3   2   1     2.652157727560   120.75605776     2.01592523
 C      7   3   2     2.693851696656   120.28535627   181.49325647
 C      8   7   3     2.554342058123   121.44135654   179.03560330
 C      5   4   1     2.722122097219   123.56726407   183.40253614
 C     10   5   4     2.677435609434   119.36020221   186.20454480
 N     10   5   4     2.535472555317   119.45924287     7.22632457
 C     12  10   5     2.477797420594   119.38317854   182.07857280
 C     13  12  10     2.638428750691   123.82914936   359.75609476
 C     14  13  12     2.594915939796   117.95088129   357.94586173
 C      6   4   1     2.571762414900   117.35464594   235.29477422
 O     16   6   4     2.314579252374   122.89320072    17.38390039
 N     16   6   4     2.523787810398   111.70027706   190.72817581
 C     18  16   6     2.737163808757   121.40665207    11.13257238
 C     18  16   6     2.731488414234   120.09592002   178.70025001
 H     20  18  16     2.056243105594   108.47935821     8.92096616
 H     20  18  16     2.061201392453   110.31523425   249.25312138
 H     20  18  16     2.059309950873   109.63955957   128.46082851
 H     19  18  16     2.056337082404   109.96482055   309.67289667
 H     19  18  16     2.051789565815   108.25075443   189.97415455
 H     19  18  16     2.062686256654   110.51103586    69.55458062
 H      3   2   1     2.038739222482   120.59340567   182.26822126
 H      1   2   3     2.038356703554   120.92497594   177.40755943
 H      2   1   3     2.037592937498   119.43364167   181.56694599
 H      8   7   3     2.039481226562   117.75241669     0.07302507
 H      9   8   7     2.040373568651   121.35063626   181.72615445
 H     13  12  10     2.044118013079   115.24173320   180.15796817
 H     14  13  12     2.036638875545   120.29951510   178.85030953
 H     15  14  13     2.041451331866   121.29411334   181.71465696

---------------------
BASIS SET INFORMATION
---------------------
There are 4 groups of distinct atoms

 Group   1 Type C   : 11s5p1d contracted to 4s3p1d pattern {6311/311/1}
 Group   2 Type O   : 11s5p1d contracted to 4s3p1d pattern {6311/311/1}
 Group   3 Type N   : 11s5p1d contracted to 4s3p1d pattern {6311/311/1}
 Group   4 Type H   : 5s contracted to 3s pattern {311}

Atom   0C    basis set group =>   1
Atom   1C    basis set group =>   1
Atom   2C    basis set group =>   1
Atom   3C    basis set group =>   1
Atom   4C    basis set group =>   1
Atom   5O    basis set group =>   2
Atom   6C    basis set group =>   1
Atom   7C    basis set group =>   1
Atom   8C    basis set group =>   1
Atom   9C    basis set group =>   1
Atom  10C    basis set group =>   1
Atom  11N    basis set group =>   3
Atom  12C    basis set group =>   1
Atom  13C    basis set group =>   1
Atom  14C    basis set group =>   1
Atom  15C    basis set group =>   1
Atom  16O    basis set group =>   2
Atom  17N    basis set group =>   3
Atom  18C    basis set group =>   1
Atom  19C    basis set group =>   1
Atom  20H    basis set group =>   4
Atom  21H    basis set group =>   4
Atom  22H    basis set group =>   4
Atom  23H    basis set group =>   4
Atom  24H    basis set group =>   4
Atom  25H    basis set group =>   4
Atom  26H    basis set group =>   4
Atom  27H    basis set group =>   4
Atom  28H    basis set group =>   4
Atom  29H    basis set group =>   4
Atom  30H    basis set group =>   4
Atom  31H    basis set group =>   4
Atom  32H    basis set group =>   4
Atom  33H    basis set group =>   4
---------------------------------
AUXILIARY/J BASIS SET INFORMATION
---------------------------------
There are 4 groups of distinct atoms

 Group   1 Type C   : 12s5p4d2f1g contracted to 6s4p3d1f1g pattern {711111/2111/211/2/1}
 Group   2 Type O   : 12s5p4d2f1g contracted to 6s4p3d1f1g pattern {711111/2111/211/2/1}
 Group   3 Type N   : 12s5p4d2f1g contracted to 6s4p3d1f1g pattern {711111/2111/211/2/1}
 Group   4 Type H   : 5s2p1d contracted to 3s1p1d pattern {311/2/1}

Atom   0C    basis set group =>   1
Atom   1C    basis set group =>   1
Atom   2C    basis set group =>   1
Atom   3C    basis set group =>   1
Atom   4C    basis set group =>   1
Atom   5O    basis set group =>   2
Atom   6C    basis set group =>   1
Atom   7C    basis set group =>   1
Atom   8C    basis set group =>   1
Atom   9C    basis set group =>   1
Atom  10C    basis set group =>   1
Atom  11N    basis set group =>   3
Atom  12C    basis set group =>   1
Atom  13C    basis set group =>   1
Atom  14C    basis set group =>   1
Atom  15C    basis set group =>   1
Atom  16O    basis set group =>   2
Atom  17N    basis set group =>   3
Atom  18C    basis set group =>   1
Atom  19C    basis set group =>   1
Atom  20H    basis set group =>   4
Atom  21H    basis set group =>   4
Atom  22H    basis set group =>   4
Atom  23H    basis set group =>   4
Atom  24H    basis set group =>   4
Atom  25H    basis set group =>   4
Atom  26H    basis set group =>   4
Atom  27H    basis set group =>   4
Atom  28H    basis set group =>   4
Atom  29H    basis set group =>   4
Atom  30H    basis set group =>   4
Atom  31H    basis set group =>   4
Atom  32H    basis set group =>   4
Atom  33H    basis set group =>   4
------------------------------------------------------------------------------
                             ORCA STARTUP CALCULATIONS
                           -- RI-GTO INTEGRALS CHOSEN --
------------------------------------------------------------------------------
------------------------------------------------------------------------------
                   ___                                                        
                  /   \      - P O W E R E D   B Y -                         
                 /     \                                                     
                 |  |  |   _    _      __       _____    __    __             
                 |  |  |  | |  | |    /  \     |  _  \  |  |  /  |          
                  \  \/   | |  | |   /    \    | | | |  |  | /  /          
                 / \  \   | |__| |  /  /\  \   | |_| |  |  |/  /          
                |  |  |   |  __  | /  /__\  \  |    /   |      \           
                |  |  |   | |  | | |   __   |  |    \   |  |\   \          
                \     /   | |  | | |  |  |  |  | |\  \  |  | \   \       
                 \___/    |_|  |_| |__|  |__|  |_| \__\ |__|  \__/        
                                                                              
                      - O R C A' S   B I G   F R I E N D -                    
                                      &                                       
                       - I N T E G R A L  F E E D E R -                       
                                                                              
 v1 FN, 2020, v2 2021, v3 2022-2024                                           
------------------------------------------------------------------------------


----------------------
SHARK INTEGRAL PACKAGE
----------------------

Number of atoms                             ...     34
Number of basis functions                   ...    402
Number of shells                            ...    202
Maximum angular momentum                    ...      2
Integral batch strategy                     ... SHARK/LIBINT Hybrid
RI-J (if used) integral strategy            ... SPLIT-RIJ (Revised 2003 algorithm where possible)
Printlevel                                  ...      1
Contraction scheme used                     ... SEGMENTED contraction
Prescreening option                         ... SCHWARTZ
   Thresh                                   ... 2.500e-11
   Tcut                                     ... 2.500e-12
   Tpresel                                  ... 2.500e-12 
Coulomb Range Separation                    ... NOT USED
Exchange Range Separation                   ... NOT USED
Multipole approximations                    ... NOT USED
Finite Nucleus Model                        ... NOT USED
CABS basis                                  ... NOT available
Auxiliary Coulomb fitting basis             ... AVAILABLE
   # of basis functions in Aux-J            ...   1134
   # of shells in Aux-J                     ...    370
   Maximum angular momentum in Aux-J        ...      4
Auxiliary J/K fitting basis                 ... NOT available
Auxiliary Correlation fitting basis         ... NOT available
Auxiliary 'external' fitting basis          ... NOT available

Checking pre-screening integrals            ... done (  0.0 sec) Dimension = 202
Check shell pair data                       ... done (  0.0 sec)
Shell pair information
Shell pair cut-off parameter TPreSel        ...   2.5e-12
Total number of shell pairs                 ...     20503
Shell pairs after pre-screening             ...     15448
Total number of primitive shell pairs       ...     84717
Primitive shell pairs kept                  ...     38803
          la=0 lb=0:   5283 shell pairs
          la=1 lb=0:   5711 shell pairs
          la=1 lb=1:   1561 shell pairs
          la=2 lb=0:   1740 shell pairs
          la=2 lb=1:    983 shell pairs
          la=2 lb=2:    170 shell pairs

Calculating one electron integrals          ... done (  0.1 sec)
Calculating RI/J V-Matrix + Cholesky decomp.... done (  0.4 sec)
Calculating Nuclear repulsion               ... done (  0.0 sec) ENN=   1548.926268537768 Eh

Diagonalization of the overlap matrix:
Smallest eigenvalue                        ... 7.918e-05
Time for diagonalization                   ...    0.023 sec
Threshold for overlap eigenvalues          ... 1.000e-07
Number of eigenvalues below threshold      ... 0
Time for construction of square roots      ...    0.032 sec
Total time needed                          ...    0.085 sec

-------------------
DFT GRID GENERATION
-------------------

General Integration Accuracy     IntAcc      ... 4.388
Radial Grid Type                 RadialGrid  ... OptM3 with GC (2021)
Angular Grid (max. ang.)         AngularGrid ... 4 (Lebedev-302)
Angular grid pruning method      GridPruning ... 4 (adaptive)
Weight generation scheme         WeightScheme... mBecke (2022)
Basis function cutoff            BFCut       ... 1.0000e-11
Integration weight cutoff        WCut        ... 1.0000e-14
Partially contracted basis set               ... off
Rotationally invariant grid construction     ... off
Angular grids for H and He will be reduced by one unit

Total number of grid points                  ...   164187
Total number of batches                      ...     2584
Average number of points per batch           ...       63
Average number of grid points per atom       ...     4829

--------------------
COSX GRID GENERATION
--------------------

GRIDX 1
-------
General Integration Accuracy     IntAcc      ... 3.816
Radial Grid Type                 RadialGrid  ... OptM3 with GC (2021)
Angular Grid (max. ang.)         AngularGrid ... 1 (Lebedev-50)
Angular grid pruning method      GridPruning ... 4 (adaptive)
Weight generation scheme         WeightScheme... mBecke (2022)
Basis function cutoff            BFCut       ... 1.0000e-11
Integration weight cutoff        WCut        ... 1.0000e-14
Partially contracted basis set               ... on
Rotationally invariant grid construction     ... off
Angular grids for H and He will be reduced by one unit

Total number of grid points                  ...    20866
Total number of batches                      ...      179
Average number of points per batch           ...      116
Average number of grid points per atom       ...      614
UseSFitting                                  ... on

GRIDX 2
-------
General Integration Accuracy     IntAcc      ... 4.020
Radial Grid Type                 RadialGrid  ... OptM3 with GC (2021)
Angular Grid (max. ang.)         AngularGrid ... 2 (Lebedev-110)
Angular grid pruning method      GridPruning ... 4 (adaptive)
Weight generation scheme         WeightScheme... mBecke (2022)
Basis function cutoff            BFCut       ... 1.0000e-11
Integration weight cutoff        WCut        ... 1.0000e-14
Partially contracted basis set               ... on
Rotationally invariant grid construction     ... off
Angular grids for H and He will be reduced by one unit

Total number of grid points                  ...    45532
Total number of batches                      ...      371
Average number of points per batch           ...      122
Average number of grid points per atom       ...     1339
UseSFitting                                  ... on

GRIDX 3
-------
General Integration Accuracy     IntAcc      ... 4.338
Radial Grid Type                 RadialGrid  ... OptM3 with GC (2021)
Angular Grid (max. ang.)         AngularGrid ... 3 (Lebedev-194)
Angular grid pruning method      GridPruning ... 4 (adaptive)
Weight generation scheme         WeightScheme... mBecke (2022)
Basis function cutoff            BFCut       ... 1.0000e-11
Integration weight cutoff        WCut        ... 1.0000e-14
Partially contracted basis set               ... on
Rotationally invariant grid construction     ... off
Angular grids for H and He will be reduced by one unit

Total number of grid points                  ...    99625
Total number of batches                      ...      796
Average number of points per batch           ...      125
Average number of grid points per atom       ...     2930
UseSFitting                                  ... on
Initializing property integral containers    ... done (  0.0 sec)

SHARK setup successfully completed in   6.9 seconds

Maximum memory used throughout the entire STARTUP-calculation: 81.4 MB
-------------------------------------------------------------------------------
                                 ORCA GUESS
                   Start orbitals & Density for SCF / CASSCF
-------------------------------------------------------------------------------

------------
SCF SETTINGS
------------
Hamiltonian:
 Density Functional     Method          .... DFT(GTOs)
 Exchange Functional    Exchange        .... B88
   X-Alpha parameter    XAlpha          ....  0.666667
   Becke's b parameter  XBeta           ....  0.004200
 Correlation Functional Correlation     .... LYP
 LDA part of GGA corr.  LDAOpt          .... VWN-3
 Gradients option       PostSCFGGA      .... off
 Hybrid DFT is turned on
   Fraction HF Exchange ScalHFX         ....  0.200000
   Scaling of DF-GGA-X  ScalDFX         ....  0.720000
   Scaling of DF-GGA-C  ScalDFC         ....  0.810000
   Scaling of DF-LDA-C  ScalLDAC        ....  1.000000
   Perturbative correction              ....  0.000000
   NL short-range parameter             ....  4.800000
 RI-approximation to the Coulomb term is turned on
   Number of AuxJ basis functions       .... 1134
   RIJ-COSX (HFX calculated with COS-X)).... on


General Settings:
 Integral files         IntName         .... 2
 Hartree-Fock type      HFTyp           .... RHF
 Total Charge           Charge          ....    0
 Multiplicity           Mult            ....    1
 Number of Electrons    NEL             ....  140
 Basis Dimension        Dim             ....  402
 Nuclear Repulsion      ENuc            ....   1548.9262685378 Eh

Convergence Acceleration:
 AO-DIIS                CNVDIIS         .... on
   Start iteration      DIISMaxIt       ....    12
   Startup error        DIISStart       ....  0.200000
   # of expansion vecs  DIISMaxEq       ....     5
   Bias factor          DIISBfac        ....   1.050
   Max. coefficient     DIISMaxC        ....  10.000
 MO-DIIS                CNVKDIIS        .... off
 Trust-Rad. Augm. Hess. CNVTRAH         .... auto
   Auto Start mean grad. ratio tolernc. ....  1.125000
   Auto Start start iteration           ....    50
   Auto Start num. interpolation iter.  ....    10
   Max. Number of Micro iterations      ....    24
   Max. Number of Macro iterations      .... Maxiter - #DIIS iter
   Number of Davidson start vectors     ....     2
   Converg. threshold    (grad. norm)   ....   1.000e-05
   Grad. Scal. Fac. for Micro threshold ....   0.100
   Minimum threshold for Micro iter.    ....   1.000e-02
   NR start threshold (gradient norm)   ....   1.000e-04
   Initial trust radius                 ....   0.400
   Minimum AH scaling param. (alpha)    ....   1.000
   Maximum AH scaling param. (alpha)    .... 1000.000
   Quad. conv. algorithm                .... NR
   White noise on init. David. guess    .... on
   Maximum white noise                  ....   0.010
   Pseudo random numbers                .... off
   Inactive MOs                         .... canonical
   Orbital update algorithm             .... Taylor
   Preconditioner                       .... Diag
   Full preconditioner red. dimension   ....   250
 SOSCF                  CNVSOSCF        .... on
   Start iteration      SOSCFMaxIt      ....   150
   Startup grad/error   SOSCFStart      ....  0.003300
   Hessian update       SOSCFHessUp     .... L-BFGS
 Level Shifting         CNVShift        .... on
   Level shift para.    LevelShift      ....    0.2500
   Turn off err/grad.   ShiftErr        ....    0.0010
 Zerner damping         CNVZerner       .... off
 Static damping         CNVDamp         .... on
   Fraction old density DampFac         ....    0.7000
   Max. Damping (<1)    DampMax         ....    0.9800
   Min. Damping (>=0)   DampMin         ....    0.0000
   Turn off err/grad.   DampErr         ....    0.1000

SCF Procedure:
 Maximum # iterations   MaxIter         ....   125
 SCF integral mode      SCFMode         .... Direct
   Integral package                     .... SHARK and LIBINT hybrid scheme
 Reset frequency        DirectResetFreq ....    20
 Integral Threshold     Thresh          ....  2.500e-11 Eh
 Primitive CutOff       TCut            ....  2.500e-12 Eh

Convergence Tolerance:
 Convergence Check Mode ConvCheckMode   .... Total+1el-Energy
 Convergence forced     ConvForced      .... 0
 Energy Change          TolE            ....  1.000e-08 Eh
 1-El. energy change                    ....  1.000e-05 Eh
 Orbital Gradient       TolG            ....  1.000e-05
 Orbital Rotation angle TolX            ....  1.000e-05
 DIIS Error             TolErr          ....  5.000e-07

------------------------------
INITIAL GUESS: MODEL POTENTIAL
------------------------------
Loading Hartree-Fock densities                     ... done
Calculating cut-offs                               ... done
Initializing the effective Hamiltonian             ... done
Setting up the integral package (SHARK)            ... done
Starting the Coulomb interaction                   ... done (   1.0 sec)
Making the grid                                    ... done (   0.7 sec)
Mapping shells                                     ... done
Starting the XC term evaluation                    ... done (   0.6 sec)
  promolecular density results
     # of electrons  =    139.985309879
     EX              =   -116.101566105
     EC              =     -4.795568777
     EX+EC           =   -120.897134882
Transforming the Hamiltonian                       ... done (   0.0 sec)
Diagonalizing the Hamiltonian                      ... done (   0.0 sec)
Back transforming the eigenvectors                 ... done (   0.1 sec)
Now organizing SCF variables                       ... done
                      ------------------
                      INITIAL GUESS DONE (   2.6 sec)
                      ------------------
             **** ENERGY FILE WAS UPDATED (2.en.tmp) ****
Finished Guess after   3.3 sec
Maximum memory used throughout the entire GUESS-calculation: 48.9 MB

-------------------------------------------------------------------------------------------
                                      ORCA LEAN-SCF
                              memory conserving SCF solver
-------------------------------------------------------------------------------------------

--------------------
CPCM SOLVATION MODEL
--------------------
CPCM parameters:
  Epsilon                                         ...      80.1510
  Refrac                                          ...       1.3328
  Rsolv                                           ...       1.3000
  Surface type                                    ... GAUSSIAN VDW
  Discretization scheme                           ... Constant charge density
    Threshold for H atoms                         ...       5.0000 (charges/Ang^2)
    Threshold for non-H atoms                     ...       5.0000 (charges/Ang^2)
  Epsilon function type                           ...         CPCM
Solvent:                                          ... WATER
Radii:
  Scheme                                          ... Element-dependent radii
  Radius for C  used is    3.8550 Bohr (=   2.0400 Ang.)
  Radius for O  used is    3.4469 Bohr (=   1.8240 Ang.)
  Radius for N  used is    3.5149 Bohr (=   1.8600 Ang.)
  Radius for H  used is    2.4944 Bohr (=   1.3200 Ang.)
Calculating surface                               ...        done! (  0.0s)
Cavity surface points                             ...         2959
Cavity Volume                                     ...    2082.8364
Cavity Surface-area                               ...    1040.9109
Calculating surface distance matrix               ...        done! (  0.0s)
Performing Cholesky decomposition & store         ...        done! (  1.4s)
Overall time for CPCM initialization              ...                 1.5s

----------------------------------------D-I-I-S--------------------------------------------
Iteration    Energy (Eh)           Delta-E    RMSDP     MaxDP     DIISErr   Damp  Time(sec)
-------------------------------------------------------------------------------------------
               ***  Starting incremental Fock matrix formation  ***
    1    -877.8365953446841559     0.00e+00  1.86e-03  7.62e-02  3.52e-01  0.700  30.0
    2    -878.0562179680632653    -2.20e-01  1.40e-03  3.61e-02  1.37e-01  0.700  16.5
                               ***Turning on AO-DIIS***
    3    -878.1472930934655778    -9.11e-02  6.27e-04  1.66e-02  4.23e-02  0.700  16.3
    4    -878.2019864943554239    -5.47e-02  9.75e-04  2.22e-02  2.23e-02  0.000  15.4
    5    -878.3204129077516882    -1.18e-01  2.19e-04  6.43e-03  5.21e-03  0.000  15.9
                              *** Initializing SOSCF ***
---------------------------------------S-O-S-C-F--------------------------------------
Iteration    Energy (Eh)           Delta-E    RMSDP     MaxDP     MaxGrad    Time(sec)
--------------------------------------------------------------------------------------
    6    -878.3209888986752958    -5.76e-04  6.27e-05  1.71e-03  2.06e-03    14.7
               *** Restarting incremental Fock matrix formation ***
    7    -878.3210460459831666    -5.71e-05  4.07e-05  1.54e-03  4.47e-04    28.9
    8    -878.3210352239871099     1.08e-05  2.26e-05  9.76e-04  7.90e-04    19.6
    9    -878.3210536539363602    -1.84e-05  3.36e-06  1.05e-04  1.69e-05    17.8
   10    -878.3210536092383336     4.47e-08  1.75e-06  6.98e-05  3.67e-05    15.0
   11    -878.3210537056438625    -9.64e-08  5.49e-07  2.02e-05  4.43e-06    13.6
   12    -878.3210536960118588     9.63e-09  3.01e-07  1.23e-05  5.07e-06    12.0
                 **** Energy Check signals convergence ****

               *****************************************************
               *                     SUCCESS                       *
               *           SCF CONVERGED AFTER  12 CYCLES          *
               *****************************************************

Recomputing exchange energy using gridx3       ... done (   42.826 sec)
Old exchange energy                            :    -23.584087190 Eh
New exchange energy                            :    -23.584124305 Eh
Exchange energy change after final integration :     -0.000037115 Eh
Total energy after final integration           :   -878.321090811 Eh
             **** ENERGY FILE WAS UPDATED (2.en.tmp) ****

----------------
TOTAL SCF ENERGY
----------------

Total Energy       :       -878.32109081136969 Eh          -23900.33195 eV

Components:
Nuclear Repulsion  :       1548.92626853776801 Eh           42148.42655 eV
Electronic Energy  :      -2427.22463332810094 Eh          -66048.14010 eV
One Electron Energy:      -4271.20373310336345 Eh         -116225.36236 eV
Two Electron Energy:       1843.97909977526274 Eh           50177.22227 eV
CPCM Dielectric    :         -0.02268890567926 Eh              -0.61740 eV

Virial components:
Potential Energy   :      -1753.88464165492655 Eh          -47725.62742 eV
Kinetic Energy     :        875.56355084355687 Eh           23825.29547 eV
Virial Ratio       :          2.00314944582281

DFT components:
N(Alpha)           :       69.999861940941 electrons
N(Beta)            :       69.999861940941 electrons
N(Total)           :      139.999723881881 electrons
E(X)               :      -93.743597243765 Eh       
E(C)               :       -6.166568408136 Eh       
E(XC)              :      -99.910165651900 Eh       

CPCM Solvation Model Properties:
Surface-charge          :         -0.02737286816159
Corrected charge        :         -0.00000000000000
Outlying charge corr.   :          0.00004284711607 Eh               0.00117 eV
Free-energy (cav+disp)  :  This term is not implemented in the current solvation scheme

---------------
SCF CONVERGENCE
---------------

  Last Energy change         ...   -9.6320e-09  Tolerance :   1.0000e-08
  Last MAX-Density change    ...    1.2304e-05  Tolerance :   1.0000e-07
  Last RMS-Density change    ...    3.0118e-07  Tolerance :   5.0000e-09
  Last DIIS Error            ...    2.0578e-03  Tolerance :   5.0000e-07
  Last Orbital Gradient      ...    5.0681e-06  Tolerance :   1.0000e-05
  Last Orbital Rotation      ...    1.0515e-05  Tolerance :   1.0000e-05


----------------
ORBITAL ENERGIES
----------------

  NO   OCC          E(Eh)            E(eV) 
   0   2.0000     -19.167166      -521.5651 
   1   2.0000     -19.080225      -519.1993 
   2   2.0000     -14.338391      -390.1674 
   3   2.0000     -14.309917      -389.3926 
   4   2.0000     -10.314139      -280.6620 
   5   2.0000     -10.245904      -278.8052 
   6   2.0000     -10.220273      -278.1078 
   7   2.0000     -10.208799      -277.7955 
   8   2.0000     -10.194363      -277.4027 
   9   2.0000     -10.193646      -277.3832 
  10   2.0000     -10.192768      -277.3593 
  11   2.0000     -10.191326      -277.3201 
  12   2.0000     -10.190997      -277.3111 
  13   2.0000     -10.190976      -277.3106 
  14   2.0000     -10.181021      -277.0397 
  15   2.0000     -10.180770      -277.0328 
  16   2.0000     -10.180467      -277.0246 
  17   2.0000     -10.180043      -277.0131 
  18   2.0000     -10.178706      -276.9767 
  19   2.0000     -10.176307      -276.9114 
  20   2.0000      -1.119872       -30.4733 
  21   2.0000      -1.017652       -27.6917 
  22   2.0000      -0.962586       -26.1933 
  23   2.0000      -0.947394       -25.7799 
  24   2.0000      -0.885377       -24.0923 
  25   2.0000      -0.842298       -22.9201 
  26   2.0000      -0.810954       -22.0672 
  27   2.0000      -0.786438       -21.4001 
  28   2.0000      -0.753866       -20.5137 
  29   2.0000      -0.747799       -20.3487 
  30   2.0000      -0.722613       -19.6633 
  31   2.0000      -0.705883       -19.2080 
  32   2.0000      -0.658362       -17.9149 
  33   2.0000      -0.651417       -17.7260 
  34   2.0000      -0.633594       -17.2410 
  35   2.0000      -0.622641       -16.9429 
  36   2.0000      -0.575468       -15.6593 
  37   2.0000      -0.550624       -14.9832 
  38   2.0000      -0.537676       -14.6309 
  39   2.0000      -0.533380       -14.5140 
  40   2.0000      -0.515033       -14.0148 
  41   2.0000      -0.499484       -13.5916 
  42   2.0000      -0.491973       -13.3873 
  43   2.0000      -0.484430       -13.1820 
  44   2.0000      -0.479555       -13.0493 
  45   2.0000      -0.466486       -12.6937 
  46   2.0000      -0.447021       -12.1641 
  47   2.0000      -0.443948       -12.0804 
  48   2.0000      -0.437988       -11.9183 
  49   2.0000      -0.431273       -11.7355 
  50   2.0000      -0.424759       -11.5583 
  51   2.0000      -0.412778       -11.2322 
  52   2.0000      -0.408154       -11.1064 
  53   2.0000      -0.405880       -11.0446 
  54   2.0000      -0.404050       -10.9948 
  55   2.0000      -0.401824       -10.9342 
  56   2.0000      -0.386929       -10.5289 
  57   2.0000      -0.383745       -10.4422 
  58   2.0000      -0.376666       -10.2496 
  59   2.0000      -0.365243        -9.9388 
  60   2.0000      -0.356278        -9.6948 
  61   2.0000      -0.342218        -9.3122 
  62   2.0000      -0.318951        -8.6791 
  63   2.0000      -0.305278        -8.3070 
  64   2.0000      -0.280027        -7.6199 
  65   2.0000      -0.279167        -7.5965 
  66   2.0000      -0.262757        -7.1500 
  67   2.0000      -0.248532        -6.7629 
  68   2.0000      -0.244534        -6.6541 
  69   2.0000      -0.226331        -6.1588 
  70   0.0000      -0.060599        -1.6490 
  71   0.0000      -0.051566        -1.4032 
  72   0.0000      -0.011954        -0.3253 
  73   0.0000       0.015883         0.4322 
  74   0.0000       0.045153         1.2287 
  75   0.0000       0.054841         1.4923 
  76   0.0000       0.058361         1.5881 
  77   0.0000       0.061956         1.6859 
  78   0.0000       0.065518         1.7828 
  79   0.0000       0.081511         2.2180 
  80   0.0000       0.088843         2.4175 
*Only the first 10 virtual orbitals were printed.

                    ********************************
                    * MULLIKEN POPULATION ANALYSIS *
                    ********************************

-----------------------
MULLIKEN ATOMIC CHARGES
-----------------------
   0 C :   -0.230022
   1 C :   -0.217328
   2 C :   -0.230034
   3 C :    0.214306
   4 C :    0.019211
   5 O :   -0.363714
   6 C :    0.020091
   7 C :   -0.226785
   8 C :   -0.234492
   9 C :    0.150937
  10 C :   -0.017808
  11 N :   -0.398102
  12 C :   -0.034956
  13 C :   -0.298080
  14 C :   -0.099188
  15 C :    0.549257
  16 O :   -0.463308
  17 N :   -0.316394
  18 C :   -0.515727
  19 C :   -0.533827
  20 H :    0.230045
  21 H :    0.233474
  22 H :    0.236377
  23 H :    0.234464
  24 H :    0.234234
  25 H :    0.225268
  26 H :    0.226800
  27 H :    0.229135
  28 H :    0.227220
  29 H :    0.229220
  30 H :    0.227516
  31 H :    0.225345
  32 H :    0.230341
  33 H :    0.236523
Sum of atomic charges:   -0.0000000

--------------------------------
MULLIKEN REDUCED ORBITAL CHARGES
--------------------------------
  0 C s       :     3.180778  s :     3.180778
      pz      :     0.997833  p :     2.991041
      px      :     1.017004
      py      :     0.976204
      dz2     :     0.011163  d :     0.058204
      dxz     :     0.010299
      dyz     :     0.008384
      dx2y2   :     0.018007
      dxy     :     0.010351

  1 C s       :     3.197662  s :     3.197662
      pz      :     0.977340  p :     2.956493
      px      :     0.984114
      py      :     0.995040
      dz2     :     0.008872  d :     0.063173
      dxz     :     0.015462
      dyz     :     0.008071
      dx2y2   :     0.011738
      dxy     :     0.019029

  2 C s       :     3.190393  s :     3.190393
      pz      :     1.019633  p :     2.978371
      px      :     0.962168
      py      :     0.996571
      dz2     :     0.006554  d :     0.061270
      dxz     :     0.015069
      dyz     :     0.009660
      dx2y2   :     0.013208
      dxy     :     0.016780

  3 C s       :     3.124483  s :     3.124483
      pz      :     0.793877  p :     2.546450
      px      :     0.876447
      py      :     0.876126
      dz2     :     0.019139  d :     0.114761
      dxz     :     0.023696
      dyz     :     0.018341
      dx2y2   :     0.025330
      dxy     :     0.028255

  4 C s       :     3.025593  s :     3.025593
      pz      :     1.047316  p :     2.886797
      px      :     0.866327
      py      :     0.973154
      dz2     :     0.011309  d :     0.068399
      dxz     :     0.015856
      dyz     :     0.008579
      dx2y2   :     0.016641
      dxy     :     0.016013

  5 O s       :     3.806136  s :     3.806136
      pz      :     1.626969  p :     4.542532
      px      :     1.703417
      py      :     1.212146
      dz2     :     0.002803  d :     0.015046
      dxz     :     0.002366
      dyz     :     0.003624
      dx2y2   :     0.003331
      dxy     :     0.002923

  6 C s       :     3.084239  s :     3.084239
      pz      :     0.946718  p :     2.819325
      px      :     0.937959
      py      :     0.934648
      dz2     :     0.012820  d :     0.076345
      dxz     :     0.016827
      dyz     :     0.010244
      dx2y2   :     0.018476
      dxy     :     0.017978

  7 C s       :     3.193429  s :     3.193429
      pz      :     1.009630  p :     2.971361
      px      :     0.948919
      py      :     1.012812
      dz2     :     0.007394  d :     0.061994
      dxz     :     0.013381
      dyz     :     0.011066
      dx2y2   :     0.015524
      dxy     :     0.014628

  8 C s       :     3.203069  s :     3.203069
      pz      :     0.967074  p :     2.969419
      px      :     1.035427
      py      :     0.966919
      dz2     :     0.012223  d :     0.062004
      dxz     :     0.010823
      dyz     :     0.009954
      dx2y2   :     0.019144
      dxy     :     0.009859

  9 C s       :     3.057260  s :     3.057260
      pz      :     0.850470  p :     2.692584
      px      :     0.938308
      py      :     0.903806
      dz2     :     0.018615  d :     0.099220
      dxz     :     0.025669
      dyz     :     0.015087
      dx2y2   :     0.020090
      dxy     :     0.019759

 10 C s       :     3.072880  s :     3.072880
      pz      :     0.996487  p :     2.870723
      px      :     0.900867
      py      :     0.973369
      dz2     :     0.013780  d :     0.074205
      dxz     :     0.016003
      dyz     :     0.010862
      dx2y2   :     0.017556
      dxy     :     0.016004

 11 N s       :     3.630010  s :     3.630010
      pz      :     1.133471  p :     3.731237
      px      :     1.508587
      py      :     1.089179
      dz2     :     0.007133  d :     0.036855
      dxz     :     0.008815
      dyz     :     0.005736
      dx2y2   :     0.005823
      dxy     :     0.009348

 12 C s       :     3.138809  s :     3.138809
      pz      :     0.973890  p :     2.806644
      px      :     0.905948
      py      :     0.926806
      dz2     :     0.014121  d :     0.089504
      dxz     :     0.018909
      dyz     :     0.014579
      dx2y2   :     0.021109
      dxy     :     0.020787

 13 C s       :     3.235265  s :     3.235265
      pz      :     0.992785  p :     3.003244
      px      :     0.979982
      py      :     1.030476
      dz2     :     0.009180  d :     0.059571
      dxz     :     0.014825
      dyz     :     0.009302
      dx2y2   :     0.011435
      dxy     :     0.014829

 14 C s       :     3.154694  s :     3.154694
      pz      :     0.951371  p :     2.882094
      px      :     0.995126
      py      :     0.935598
      dz2     :     0.012696  d :     0.062399
      dxz     :     0.012494
      dyz     :     0.009459
      dx2y2   :     0.017979
      dxy     :     0.009773

 15 C s       :     2.899929  s :     2.899929
      pz      :     0.774930  p :     2.320250
      px      :     0.821596
      py      :     0.723724
      dz2     :     0.059217  d :     0.230564
      dxz     :     0.038544
      dyz     :     0.063772
      dx2y2   :     0.035946
      dxy     :     0.033083

 16 O s       :     3.824870  s :     3.824870
      pz      :     1.411198  p :     4.622556
      px      :     1.519917
      py      :     1.691441
      dz2     :     0.005389  d :     0.015882
      dxz     :     0.004178
      dyz     :     0.004261
      dx2y2   :     0.000941
      dxy     :     0.001113

 17 N s       :     3.463936  s :     3.463936
      pz      :     1.144613  p :     3.817026
      px      :     1.559527
      py      :     1.112887
      dz2     :     0.008154  d :     0.035431
      dxz     :     0.005258
      dyz     :     0.011465
      dx2y2   :     0.004813
      dxy     :     0.005742

 18 C s       :     3.312334  s :     3.312334
      pz      :     0.887119  p :     3.132094
      px      :     1.142109
      py      :     1.102866
      dz2     :     0.014287  d :     0.071299
      dxz     :     0.018514
      dyz     :     0.016495
      dx2y2   :     0.005040
      dxy     :     0.016964

 19 C s       :     3.323876  s :     3.323876
      pz      :     1.182118  p :     3.138092
      px      :     1.154559
      py      :     0.801416
      dz2     :     0.013409  d :     0.071859
      dxz     :     0.010915
      dyz     :     0.010482
      dx2y2   :     0.017647
      dxy     :     0.019406

 20 H s       :     0.769955  s :     0.769955

 21 H s       :     0.766526  s :     0.766526

 22 H s       :     0.763623  s :     0.763623

 23 H s       :     0.765536  s :     0.765536

 24 H s       :     0.765766  s :     0.765766

 25 H s       :     0.774732  s :     0.774732

 26 H s       :     0.773200  s :     0.773200

 27 H s       :     0.770865  s :     0.770865

 28 H s       :     0.772780  s :     0.772780

 29 H s       :     0.770780  s :     0.770780

 30 H s       :     0.772484  s :     0.772484

 31 H s       :     0.774655  s :     0.774655

 32 H s       :     0.769659  s :     0.769659

 33 H s       :     0.763477  s :     0.763477



                     *******************************
                     * LOEWDIN POPULATION ANALYSIS *
                     *******************************

----------------------
LOEWDIN ATOMIC CHARGES
----------------------
   0 C :   -0.118239
   1 C :   -0.102721
   2 C :   -0.104185
   3 C :   -0.006555
   4 C :   -0.038598
   5 O :    0.068826
   6 C :   -0.031320
   7 C :   -0.092712
   8 C :   -0.097403
   9 C :   -0.031119
  10 C :   -0.050056
  11 N :    0.004788
  12 C :   -0.096545
  13 C :   -0.128593
  14 C :   -0.060072
  15 C :   -0.129396
  16 O :   -0.206585
  17 N :    0.043105
  18 C :   -0.242894
  19 C :   -0.242682
  20 H :    0.116193
  21 H :    0.110271
  22 H :    0.113748
  23 H :    0.112724
  24 H :    0.118987
  25 H :    0.105239
  26 H :    0.122922
  27 H :    0.124269
  28 H :    0.124032
  29 H :    0.125058
  30 H :    0.124484
  31 H :    0.109663
  32 H :    0.127164
  33 H :    0.128203

-------------------------------
LOEWDIN REDUCED ORBITAL CHARGES
-------------------------------
  0 C s       :     2.831420  s :     2.831420
      pz      :     1.035107  p :     3.156957
      px      :     1.066060
      py      :     1.055790
      dz2     :     0.022488  d :     0.129861
      dxz     :     0.023272
      dyz     :     0.022276
      dx2y2   :     0.035012
      dxy     :     0.026813

  1 C s       :     2.827360  s :     2.827360
      pz      :     1.015232  p :     3.138107
      px      :     1.096772
      py      :     1.026103
      dz2     :     0.019092  d :     0.137255
      dxz     :     0.033391
      dyz     :     0.016716
      dx2y2   :     0.029329
      dxy     :     0.038726

  2 C s       :     2.826098  s :     2.826098
      pz      :     1.023316  p :     3.144601
      px      :     1.092206
      py      :     1.029079
      dz2     :     0.014014  d :     0.133486
      dxz     :     0.032591
      dyz     :     0.016945
      dx2y2   :     0.032600
      dxy     :     0.037336

  3 C s       :     2.788673  s :     2.788673
      pz      :     0.937533  p :     2.966129
      px      :     1.062410
      py      :     0.966187
      dz2     :     0.040060  d :     0.251753
      dxz     :     0.053510
      dyz     :     0.042693
      dx2y2   :     0.053706
      dxy     :     0.061785

  4 C s       :     2.782698  s :     2.782698
      pz      :     1.022813  p :     3.094263
      px      :     1.049132
      py      :     1.022319
      dz2     :     0.024726  d :     0.161637
      dxz     :     0.037178
      dyz     :     0.021405
      dx2y2   :     0.040370
      dxy     :     0.037959

  5 O s       :     3.361884  s :     3.361884
      pz      :     1.608331  p :     4.544179
      px      :     1.665945
      py      :     1.269903
      dz2     :     0.004353  d :     0.025111
      dxz     :     0.003042
      dyz     :     0.006187
      dx2y2   :     0.006785
      dxy     :     0.004745

  6 C s       :     2.778647  s :     2.778647
      pz      :     1.002691  p :     3.078547
      px      :     1.060931
      py      :     1.014925
      dz2     :     0.027558  d :     0.174125
      dxz     :     0.038406
      dyz     :     0.024663
      dx2y2   :     0.042446
      dxy     :     0.041052

  7 C s       :     2.827520  s :     2.827520
      pz      :     1.020777  p :     3.130771
      px      :     1.068944
      py      :     1.041050
      dz2     :     0.015324  d :     0.134421
      dxz     :     0.029357
      dyz     :     0.019919
      dx2y2   :     0.035940
      dxy     :     0.033881

  8 C s       :     2.827196  s :     2.827196
      pz      :     1.023186  p :     3.135264
      px      :     1.071661
      py      :     1.040416
      dz2     :     0.025283  d :     0.134942
      dxz     :     0.023618
      dyz     :     0.024503
      dx2y2   :     0.036698
      dxy     :     0.024840

  9 C s       :     2.781645  s :     2.781645
      pz      :     0.989822  p :     3.022267
      px      :     1.057592
      py      :     0.974853
      dz2     :     0.039585  d :     0.227207
      dxz     :     0.062088
      dyz     :     0.035153
      dx2y2   :     0.044589
      dxy     :     0.045793

 10 C s       :     2.782524  s :     2.782524
      pz      :     1.011818  p :     3.095753
      px      :     1.070479
      py      :     1.013455
      dz2     :     0.029359  d :     0.171779
      dxz     :     0.038291
      dyz     :     0.025317
      dx2y2   :     0.040823
      dxy     :     0.037989

 11 N s       :     3.128803  s :     3.128803
      pz      :     1.168283  p :     3.797476
      px      :     1.492736
      py      :     1.136458
      dz2     :     0.013466  d :     0.068932
      dxz     :     0.015076
      dyz     :     0.013982
      dx2y2   :     0.010043
      dxy     :     0.016365

 12 C s       :     2.836064  s :     2.836064
      pz      :     1.003016  p :     3.062607
      px      :     1.074389
      py      :     0.985202
      dz2     :     0.029512  d :     0.197874
      dxz     :     0.041483
      dyz     :     0.027796
      dx2y2   :     0.047977
      dxy     :     0.051107

[...]
 49:    995.24   0.004892   24.72  0.001534  (-0.017993 -0.002690  0.034681)
 50:   1000.86   0.000194    0.98  0.000061  ( 0.000556 -0.005596  0.005386)
 51:   1029.04   0.009078   45.87  0.002753  ( 0.044050 -0.028483 -0.001084)
 52:   1046.55   0.008631   43.62  0.002574  ( 0.026955 -0.042972 -0.000713)
 53:   1082.78   0.004040   20.42  0.001164  ( 0.010186 -0.032463 -0.002621)
 54:   1084.18   0.001230    6.22  0.000354  (-0.002041  0.015972 -0.009740)
 55:   1108.03   0.000576    2.91  0.000162  (-0.012123 -0.003142 -0.002299)
 56:   1134.49   0.000791    4.00  0.000217  (-0.006043  0.013441  0.000546)
 57:   1148.10   0.006678   33.75  0.001815  (-0.009574 -0.037331 -0.018165)
 58:   1161.19   0.196349  992.27  0.052768  (-0.104053  0.174034  0.107949)
 59:   1172.50   0.003108   15.71  0.000827  (-0.007480  0.021472  0.017614)
 60:   1181.23   0.007301   36.90  0.001929  (-0.012286  0.038912  0.016239)
 61:   1188.35   0.003523   17.80  0.000925  ( 0.013858 -0.026631 -0.004890)
 62:   1220.94   0.004353   22.00  0.001113  (-0.008407  0.028066  0.015947)
 63:   1225.50   0.009091   45.94  0.002315  (-0.022338  0.038256  0.018774)
 64:   1257.67   0.029236  147.75  0.007254  (-0.049848  0.064454  0.024805)
 65:   1272.01   0.004566   23.08  0.001120  (-0.011616  0.030072  0.008997)
 66:   1285.28   0.002878   14.54  0.000699  ( 0.004404  0.020583 -0.015992)
 67:   1324.13   0.003010   15.21  0.000709  ( 0.017812 -0.015647 -0.012136)
 68:   1342.43   0.006363   32.16  0.001479  (-0.021020  0.025393  0.019812)
 69:   1355.88   0.001969    9.95  0.000453  ( 0.015244 -0.011223 -0.009733)
 70:   1412.10   0.022269  112.54  0.004921  ( 0.007206  0.056917  0.040372)
 71:   1422.21   0.045852  231.72  0.010061  (-0.046726  0.077311  0.043596)
 72:   1447.21   0.003546   17.92  0.000765  ( 0.003388  0.005130 -0.026962)
 73:   1452.95   0.002273   11.49  0.000488  (-0.002316 -0.018876 -0.011250)
 74:   1457.29   0.005643   28.52  0.001208  (-0.000753 -0.027147 -0.021700)
 75:   1470.37   0.008266   41.78  0.001754  ( 0.027659 -0.028512  0.013283)
 76:   1478.05   0.002919   14.75  0.000616  (-0.016854 -0.010941  0.014575)
 77:   1492.78   0.000207    1.05  0.000043  ( 0.003168  0.001597 -0.005541)
 78:   1501.75   0.005928   29.96  0.001232  (-0.034652 -0.003524 -0.004326)
 79:   1505.04   0.004460   22.54  0.000925  ( 0.009971  0.021806 -0.018706)
 80:   1531.60   0.001394    7.04  0.000284  ( 0.012969 -0.008676  0.006368)
 81:   1537.04   0.014678   74.18  0.002980  ( 0.013292 -0.052593 -0.006106)
 82:   1548.55   0.010334   52.23  0.002083  (-0.024281  0.033951  0.018449)
 83:   1601.19   0.007967   40.26  0.001553  ( 0.037952 -0.004891 -0.009401)
 84:   1633.14   0.010902   55.09  0.002083  (-0.008554 -0.033373 -0.029938)
 85:   1647.06   0.001257    6.35  0.000238  (-0.007780 -0.008936 -0.009886)
 86:   1661.73   0.004271   21.58  0.000802  ( 0.027491  0.006784  0.000493)
 87:   1743.51   0.176180  890.34  0.031534  ( 0.037737  0.006932 -0.173383)
 88:   3024.43   0.007244   36.61  0.000747  (-0.001316  0.024079 -0.012878)
 89:   3029.34   0.024780  125.23  0.002553  ( 0.000630 -0.028671 -0.041597)
 90:   3075.45   0.020869  105.46  0.002118  (-0.045796 -0.003870  0.002314)
 91:   3080.13   0.002362   11.94  0.000239  (-0.015421  0.001126 -0.000449)
 92:   3150.72   0.009522   48.12  0.000943  ( 0.004330 -0.021490 -0.021507)
 93:   3169.73   0.000289    1.46  0.000028  ( 0.004867  0.001878  0.001120)
 94:   3173.09   0.001696    8.57  0.000167  ( 0.000041 -0.004163  0.012224)
 95:   3176.30   0.001386    7.00  0.000136  (-0.009902  0.003506  0.005083)
 96:   3176.91   0.001370    6.92  0.000135  ( 0.011177 -0.001529 -0.002695)
 97:   3186.55   0.005080   25.67  0.000497  (-0.019259  0.006658  0.009068)
 98:   3189.45   0.009623   48.63  0.000942  (-0.008475  0.020843  0.020864)
 99:   3191.73   0.001825    9.22  0.000178  (-0.003239  0.012924  0.000943)
100:   3201.06   0.010905   55.11  0.001063  ( 0.023774  0.017792  0.013465)
101:   3201.31   0.000433    2.19  0.000042  (-0.002425 -0.004160 -0.004359)

* The epsilon (eps) is given for a Dirac delta lineshape.
** The dipole moment derivative (T) already includes vibrational overlap.

The first frequency considered to be a vibration is 6
The total number of vibrations considered is 96


--------------------------
THERMOCHEMISTRY AT 298.15K
--------------------------

Temperature         ...   298.15 K
Pressure            ...     1.00 atm
Total Mass          ...   266.30 AMU
Quasi RRHO          ...     True
Cut-Off Frequency   ...     1.00 cm^-1

Throughout the following assumptions are being made:
  (1) The electronic state is orbitally nondegenerate
  (2) There are no thermally accessible electronically excited states
  (3) Hindered rotations indicated by low frequency modes are not
      treated as such but are treated as vibrations and this may
      cause some error
  (4) All equations used are the standard statistical mechanics
      equations for an ideal gas
  (5) All vibrations are strictly harmonic

freq.      13.31  E(vib)   ...       0.57 
freq.      33.26  E(vib)   ...       0.55 
freq.      48.89  E(vib)   ...       0.53 
freq.      57.05  E(vib)   ...       0.51 
freq.      96.42  E(vib)   ...       0.47 
freq.     102.95  E(vib)   ...       0.46 
freq.     111.54  E(vib)   ...       0.45 
freq.     130.89  E(vib)   ...       0.42 
freq.     203.84  E(vib)   ...       0.35 
freq.     219.82  E(vib)   ...       0.33 
freq.     227.34  E(vib)   ...       0.33 
freq.     232.55  E(vib)   ...       0.32 
freq.     245.90  E(vib)   ...       0.31 
freq.     297.03  E(vib)   ...       0.27 
freq.     366.53  E(vib)   ...       0.22 
freq.     376.41  E(vib)   ...       0.21 
freq.     409.45  E(vib)   ...       0.19 
freq.     420.72  E(vib)   ...       0.18 
freq.     463.12  E(vib)   ...       0.16 
freq.     488.83  E(vib)   ...       0.15 
freq.     509.51  E(vib)   ...       0.14 
freq.     519.31  E(vib)   ...       0.13 
freq.     524.88  E(vib)   ...       0.13 
freq.     561.22  E(vib)   ...       0.11 
freq.     581.97  E(vib)   ...       0.11 
freq.     607.09  E(vib)   ...       0.10 
freq.     622.94  E(vib)   ...       0.09 
freq.     658.90  E(vib)   ...       0.08 
freq.     701.49  E(vib)   ...       0.07 
freq.     729.82  E(vib)   ...       0.06 
freq.     735.94  E(vib)   ...       0.06 
freq.     739.05  E(vib)   ...       0.06 
freq.     773.32  E(vib)   ...       0.05 
freq.     800.89  E(vib)   ...       0.05 
freq.     823.69  E(vib)   ...       0.05 
freq.     833.12  E(vib)   ...       0.04 
freq.     853.78  E(vib)   ...       0.04 
freq.     867.96  E(vib)   ...       0.04 
freq.     870.55  E(vib)   ...       0.04 
freq.     922.01  E(vib)   ...       0.03 
freq.     965.36  E(vib)   ...       0.03 
freq.     979.50  E(vib)   ...       0.03 
freq.     987.95  E(vib)   ...       0.02 
freq.     995.24  E(vib)   ...       0.02 
freq.    1000.86  E(vib)   ...       0.02 
freq.    1029.04  E(vib)   ...       0.02 
freq.    1046.55  E(vib)   ...       0.02 
freq.    1082.78  E(vib)   ...       0.02 
freq.    1084.18  E(vib)   ...       0.02 
freq.    1108.03  E(vib)   ...       0.02 
freq.    1134.49  E(vib)   ...       0.01 
freq.    1148.10  E(vib)   ...       0.01 
freq.    1161.19  E(vib)   ...       0.01 
freq.    1172.50  E(vib)   ...       0.01 
freq.    1181.23  E(vib)   ...       0.01 
freq.    1188.35  E(vib)   ...       0.01 
freq.    1220.94  E(vib)   ...       0.01 
freq.    1225.50  E(vib)   ...       0.01 
freq.    1257.67  E(vib)   ...       0.01 
freq.    1272.01  E(vib)   ...       0.01 
freq.    1285.28  E(vib)   ...       0.01 
freq.    1324.13  E(vib)   ...       0.01 
freq.    1342.43  E(vib)   ...       0.01 
freq.    1355.88  E(vib)   ...       0.01 
freq.    1412.10  E(vib)   ...       0.00 
freq.    1422.21  E(vib)   ...       0.00 
freq.    1447.21  E(vib)   ...       0.00 
freq.    1452.95  E(vib)   ...       0.00 
freq.    1457.29  E(vib)   ...       0.00 
freq.    1470.37  E(vib)   ...       0.00 
freq.    1478.05  E(vib)   ...       0.00 
freq.    1492.78  E(vib)   ...       0.00 
freq.    1501.75  E(vib)   ...       0.00 
freq.    1505.04  E(vib)   ...       0.00 
freq.    1531.60  E(vib)   ...       0.00 
freq.    1537.04  E(vib)   ...       0.00 
freq.    1548.55  E(vib)   ...       0.00 
freq.    1601.19  E(vib)   ...       0.00 
freq.    1633.14  E(vib)   ...       0.00 
freq.    1647.06  E(vib)   ...       0.00 
freq.    1661.73  E(vib)   ...       0.00 
freq.    1743.51  E(vib)   ...       0.00 
freq.    3024.43  E(vib)   ...       0.00 
freq.    3029.34  E(vib)   ...       0.00 
freq.    3075.45  E(vib)   ...       0.00 
freq.    3080.13  E(vib)   ...       0.00 
freq.    3150.72  E(vib)   ...       0.00 
freq.    3169.73  E(vib)   ...       0.00 
freq.    3173.09  E(vib)   ...       0.00 
freq.    3176.30  E(vib)   ...       0.00 
freq.    3176.91  E(vib)   ...       0.00 
freq.    3186.55  E(vib)   ...       0.00 
freq.    3189.45  E(vib)   ...       0.00 
freq.    3191.73  E(vib)   ...       0.00 
freq.    3201.06  E(vib)   ...       0.00 
freq.    3201.31  E(vib)   ...       0.00 

------------
INNER ENERGY
------------

The inner energy is: U= E(el) + E(ZPE) + E(vib) + E(rot) + E(trans)
    E(el)   - is the total energy from the electronic structure calculation
              = E(kin-el) + E(nuc-el) + E(el-el) + E(nuc-nuc)
    E(ZPE)  - the the zero temperature vibrational energy from the frequency calculation
    E(vib)  - the the finite temperature correction to E(ZPE) due to population
              of excited vibrational states
    E(rot)  - is the rotational thermal energy
    E(trans)- is the translational thermal energy

Summary of contributions to the inner energy U:
Electronic energy                ...   -878.32938332 Eh
Zero point energy                ...      0.26860100 Eh     168.55 kcal/mol
Thermal vibrational correction   ...      0.01409041 Eh       8.84 kcal/mol
Thermal rotational correction    ...      0.00141627 Eh       0.89 kcal/mol
Thermal translational correction ...      0.00141627 Eh       0.89 kcal/mol
-----------------------------------------------------------------------
Total thermal energy                   -878.04385937 Eh


Summary of corrections to the electronic energy:
(perhaps to be used in another calculation)
Total thermal correction                  0.01692295 Eh      10.62 kcal/mol
Non-thermal (ZPE) correction              0.26860100 Eh     168.55 kcal/mol
-----------------------------------------------------------------------
Total correction                          0.28552395 Eh     179.17 kcal/mol


--------
ENTHALPY
--------

The enthalpy is H = U + kB*T
                kB is Boltzmann's constant
Total thermal energy              ...   -878.04385937 Eh 
Thermal Enthalpy correction       ...      0.00094421 Eh       0.59 kcal/mol
-----------------------------------------------------------------------
Total Enthalpy                    ...   -878.04291516 Eh


Note: Only C1 symmetry has been detected, increase convergence thresholds 
      if your molecule has a higher symmetry. Symmetry factor of 1.0 is   
      used for the rotational entropy correction. 
 

Note: Rotational entropy computed according to Herzberg 
Infrared and Raman Spectra, Chapter V,1, Van Nostrand Reinhold, 1945 
Point Group:  C1, Symmetry Number:   1  
Rotational constants in cm-1:     0.016105     0.011068     0.007153 

Vibrational entropy computed according to the QRRHO of S. Grimme
Chem.Eur.J. 2012 18 9955 using a reference frequency of 100.0 cm-1


-------
ENTROPY
-------

The entropy contributions are T*S = T*(S(el)+S(vib)+S(rot)+S(trans))
     S(el)   - electronic entropy
     S(vib)  - vibrational entropy
     S(rot)  - rotational entropy
     S(trans)- translational entropy
The entropies will be listed as multiplied by the temperature to get
units of energy

Electronic entropy                ...      0.00000000 Eh      0.00 kcal/mol
Vibrational entropy               ...      0.02509440 Eh     15.75 kcal/mol
Rotational entropy                ...      0.01591826 Eh      9.99 kcal/mol
Translational entropy             ...      0.02025841 Eh     12.71 kcal/mol
-----------------------------------------------------------------------
Final entropy term                ...      0.06127108 Eh     38.45 kcal/mol

In case the symmetry of your molecule has not been determined correctly
or in case you have a reason to use a different symmetry number we print 
out the resulting rotational entropy values for sn=1,12:

 non-linear molecules -----------------------------------
|  sn= 1 | S(rot)=       0.01591826 Eh      9.99 kcal/mol|
|  sn= 2 | S(rot)=       0.01526380 Eh      9.58 kcal/mol|
|  sn= 3 | S(rot)=       0.01488097 Eh      9.34 kcal/mol|
|  sn= 4 | S(rot)=       0.01460935 Eh      9.17 kcal/mol|
|  sn= 5 | S(rot)=       0.01439866 Eh      9.04 kcal/mol|
|  sn= 6 | S(rot)=       0.01422652 Eh      8.93 kcal/mol|
|  sn= 7 | S(rot)=       0.01408097 Eh      8.84 kcal/mol|
|  sn= 8 | S(rot)=       0.01395489 Eh      8.76 kcal/mol|
|  sn= 9 | S(rot)=       0.01384368 Eh      8.69 kcal/mol|
|  sn=10 | S(rot)=       0.01374420 Eh      8.62 kcal/mol|
|  sn=11 | S(rot)=       0.01365421 Eh      8.57 kcal/mol|
|  sn=12 | S(rot)=       0.01357206 Eh      8.52 kcal/mol|
 linear molecules ---------------------------------------
|  Dinfh | S(rot)=       0.00999021 Eh      6.27 kcal/mol|
|  Cinfv | S(rot)=       0.01064467 Eh      6.68 kcal/mol|
 --------------------------------------------------------


-------------------
GIBBS FREE ENERGY
-------------------

The Gibbs free energy is G = H - T*S

Total enthalpy                    ...   -878.04291516 Eh 
Total entropy correction          ...     -0.06127108 Eh    -38.45 kcal/mol
-----------------------------------------------------------------------
Final Gibbs free energy         ...   -878.10418624 Eh

For completeness - the Gibbs free energy minus the electronic energy
G-E(el)                           ...      0.22519709 Eh    141.31 kcal/mol


Maximum memory used throughout the entire PROP-calculation: 232.0 MB

--------------------------------
SUGGESTED CITATIONS FOR THIS RUN
--------------------------------

Below you find a list of papers that are relevant to this ORCA run
We neither can nor want to force you to cite these papers, but we appreciate if you do
You receive ORCA, which is the product of decades of hard work by many enthusiastic individuals, for free
The only thing we kindly ask in return is that you cite our papers,
We deeply appreciate it, if you show your appreciation for ORCA by not just citing the generic ORCA reference.

Please note that relegating all ORCA citations to the supporting information does *not* help us.
SI sections are not indexed - citations you put there will not count into any citation statistics
But we need these citations in order to attract the funding resources that allow us to do what we are doing

Therefore, if you are a happy ORCA user, please consider citing a few of the papers listed below in the main body of your paper

In addition to the list printed below, the program has created the file 2.bibtex that contains the list in bibtex format
You can import this file easily into all common literature databanks and citation aid programs


List of essential papers. We consider these as the minimum necessary citations

  1. Neese,F.
     Software update: the ORCA program system, version 5.0
     WIRES Comput. Molec. Sci., 2022 12(1)e1606
     doi.org/10.1002/wcms.1606

List of papers to cite with high priority. The work reported in these papers was absolutely
necessary for this run to complete.
Our perspective: the developers of density functionals and basis sets usually get cited in chemistry papers
Good! But without the algorithms to do something with them, the functionals or basis sets would not do anything.
Hence, in our opinion, the algorithm design and method developments papers are equally worthy of getting cited

  1. Neese,F.
     An improvement of the resolution of the identity approximation for the formation of the Coulomb matrix
     J. Comp. Chem., 2003 24(14)1740-1747
     doi.org/10.1002/jcc.10318
  2. Neese,F.; Wennmohs,F.; Hansen,A.; Becker,U.
     Efficient, approximate and parallel Hartree-Fock and hybrid DFT calculations. A 'chain-of-spheres' algorithm for the Hartree-Fock exchange
     Chem. Phys., 2009 356(1-3)98-109
     doi.org/10.1016/j.chemphys.2008.10.036
  3. Bykov,D.; Petrenko,T.; Izsak,R.; Kossmann,S.; Becker,U.; Valeev,E.; Neese,F.
     Efficient implementation of the analytic second derivatives of Hartree-Fock and hybrid DFT energies: a detailed analysis of different approximations
     Molec. Phys., 2015 113 1961-1977
     doi.org/10.1080/00268976.2015.1025114
  4. Garcia-Rates,M.; Neese,F.
     Efficient implementation of the analytical second derivatives of hartree-fock and hybrid DFT energies within the framework of the conductor-like polarizable continuum model
     J. Comput. Chem., 2019 40 1816-1828
     doi.org/10.1002/jcc.25833
  5. Garcia-Rates,M.; Neese,F.
     Effect of the Solute Cavity on the Solvation Energy and its Derivatives within the Framework of the Gaussian Charge Scheme
     J. Comput. Chem., 2020 41 922-939
     doi.org/10.1002/jcc.26139
  6. Helmich-Paris,B.; de Souza,B.; Neese,F.; Izsák,R.
     An improved chain of spheres for exchange algorithm
     J. Chem. Phys., 2021 155 104109
     doi.org/doi: 10.1063/5.0058766.
  7. Neese,F.
     The SHARK Integral Generation and Digestion System
     J. Comp. Chem., 2022  1-16
     doi.org/10.1002/jcc.26942

List of suggested additional citations. These are papers that are important in the 'surrounding' of 
of this run, or papers that preceded the highly important papers. If you like your results we are grateful for a citation.

  1. Izsak,R.; Neese,F.
     An overlap fitted chain of spheres exchange method
     J. Chem. Phys., 2011 135 144105
     doi.org/10.1063/1.3646921
  2. Izsak,R.; Hansen,A.; Neese,F.
     The resolution of identity and chain of spheres approximations for the LPNO-CCSD singles Fock term
     Molec. Phys., 2012 110 2413-2417
     doi.org/10.1080/00268976.2012.687466
  3. Neese,F.
     The ORCA program system
     WIRES Comput. Molec. Sci., 2012 2(1)73-78
     doi.org/10.1002/wcms.81
  4. Izsak,R.; Neese,F.; Klopper,W.
     Robust fitting techniques in the chain of spheres approximation to the Fock exchange: The role of the complementary space
     J. Chem. Phys., 2013 139 
     doi.org/10.1063/1.4819264
  5. Neese,F.
     Software update: the ORCA program system, version 4.0
     WIRES Comput. Molec. Sci., 2018 8(1)1-6
     doi.org/10.1002/wcms.1327
  6. Neese,F.; Wennmohs,F.; Becker,U.; Riplinger,C.
     The ORCA quantum chemistry program package
     J. Chem. Phys., 2020 152 Art. No. L224108
     doi.org/10.1063/5.0004608

List of optional additional citations

  1. Neese,F.
     Approximate second-order SCF convergence for spin unrestricted wavefunctions
     Chem. Phys. Lett., 2000 325(1-3)93-98
     doi.org/10.1016/s0009-2614(00)00662-x

Timings for individual modules:

Sum of individual times          ...    12140.201 sec (= 202.337 min)
Startup calculation              ...      173.307 sec (=   2.888 min)   1.4 %
SCF iterations                   ...     5047.564 sec (=  84.126 min)  41.6 %
Property integrals               ...     1055.343 sec (=  17.589 min)   8.7 %
SCF Response                     ...     1436.840 sec (=  23.947 min)  11.8 %
Property calculations            ...     1377.891 sec (=  22.965 min)  11.3 %
SCF Gradient evaluation          ...     3047.628 sec (=  50.794 min)  25.1 %
Geometry relaxation              ...        1.629 sec (=   0.027 min)   0.0 %
                             ****ORCA TERMINATED NORMALLY****
TOTAL RUN TIME: 0 days 3 hours 22 minutes 33 seconds 632 msec
