
                                 *****************
                                 * O   R   C   A *
                                 *****************

                                            #,                                       
                                            ###                                      
                                            ####                                     
                                            #####                                    
                                            ######                                   
                                           ########,                                 
                                     ,,################,,,,,                         
                               ,,#################################,,                 
                          ,,##########################################,,             
                       ,#########################################, ''#####,          
                    ,#############################################,,   '####,        
                  ,##################################################,,,,####,       
                ,###########''''           ''''###############################       
              ,#####''   ,,,,##########,,,,          '''####'''          '####       
            ,##' ,,,,###########################,,,                        '##       
           ' ,,###''''                  '''############,,,                           
         ,,##''                                '''############,,,,        ,,,,,,###''
      ,#''                                            '''#######################'''  
     '                                                          ''''####''''         
             ,#######,   #######,   ,#######,      ##                                
            ,#'     '#,  ##    ##  ,#'     '#,    #''#        ######   ,####,        
            ##       ##  ##   ,#'  ##            #'  '#       #        #'  '#        
            ##       ##  #######   ##           ,######,      #####,   #    #        
            '#,     ,#'  ##    ##  '#,     ,#' ,#      #,         ##   #,  ,#        
             '#######'   ##     ##  '#######'  #'      '#     #####' # '####'        



                  #######################################################
                  #                        -***-                        #
                  #          Department of theory and spectroscopy      #
                  #    Directorship and core code : Frank Neese         #
                  #        Max Planck Institute fuer Kohlenforschung    #
                  #                Kaiser Wilhelm Platz 1               #
                  #                 D-45470 Muelheim/Ruhr               #
                  #                      Germany                        #
                  #                                                     #
                  #                  All rights reserved                #
                  #                        -***-                        #
                  #######################################################


                         Program Version 5.0.1 -  RELEASE  -


 With contributions from (in alphabetic order):
   Daniel Aravena         : Magnetic Suceptibility
   Michael Atanasov       : Ab Initio Ligand Field Theory (pilot matlab implementation)
   Alexander A. Auer      : GIAO ZORA, VPT2 properties, NMR spectrum
   Ute Becker             : Parallelization
   Giovanni Bistoni       : ED, misc. LED, open-shell LED, HFLD
   Martin Brehm           : Molecular dynamics
   Dmytro Bykov           : SCF Hessian
   Vijay G. Chilkuri      : MRCI spin determinant printing, contributions to CSF-ICE
   Dipayan Datta          : RHF DLPNO-CCSD density
   Achintya Kumar Dutta   : EOM-CC, STEOM-CC
   Dmitry Ganyushin       : Spin-Orbit,Spin-Spin,Magnetic field MRCI
   Miquel Garcia          : C-PCM and meta-GGA Hessian, CC/C-PCM, Gaussian charge scheme
   Yang Guo               : DLPNO-NEVPT2, F12-NEVPT2, CIM, IAO-localization
   Andreas Hansen         : Spin unrestricted coupled pair/coupled cluster methods
   Benjamin Helmich-Paris : MC-RPA, TRAH-SCF, COSX integrals
   Lee Huntington         : MR-EOM, pCC
   Robert Izsak           : Overlap fitted RIJCOSX, COSX-SCS-MP3, EOM
   Marcus Kettner         : VPT2
   Christian Kollmar      : KDIIS, OOCD, Brueckner-CCSD(T), CCSD density, CASPT2, CASPT2-K
   Simone Kossmann        : Meta GGA functionals, TD-DFT gradient, OOMP2, MP2 Hessian
   Martin Krupicka        : Initial AUTO-CI
   Lucas Lang             : DCDCAS
   Marvin Lechner         : AUTO-CI (C++ implementation), FIC-MRCC
   Dagmar Lenk            : GEPOL surface, SMD
   Dimitrios Liakos       : Extrapolation schemes; Compound Job, initial MDCI parallelization
   Dimitrios Manganas     : Further ROCIS development; embedding schemes
   Dimitrios Pantazis     : SARC Basis sets
   Anastasios Papadopoulos: AUTO-CI, single reference methods and gradients
   Taras Petrenko         : DFT Hessian,TD-DFT gradient, ASA, ECA, R-Raman, ABS, FL, XAS/XES, NRVS
   Peter Pinski           : DLPNO-MP2, DLPNO-MP2 Gradient
   Christoph Reimann      : Effective Core Potentials
   Marius Retegan         : Local ZFS, SOC
   Christoph Riplinger    : Optimizer, TS searches, QM/MM, DLPNO-CCSD(T), (RO)-DLPNO pert. Triples
   Tobias Risthaus        : Range-separated hybrids, TD-DFT gradient, RPA, STAB
   Michael Roemelt        : Original ROCIS implementation
   Masaaki Saitow         : Open-shell DLPNO-CCSD energy and density
   Barbara Sandhoefer     : DKH picture change effects
   Avijit Sen             : IP-ROCIS
   Kantharuban Sivalingam : CASSCF convergence, NEVPT2, FIC-MRCI
   Bernardo de Souza      : ESD, SOC TD-DFT
   Georgi Stoychev        : AutoAux, RI-MP2 NMR, DLPNO-MP2 response
   Willem Van den Heuvel  : Paramagnetic NMR
   Boris Wezisla          : Elementary symmetry handling
   Frank Wennmohs         : Technical directorship


 We gratefully acknowledge several colleagues who have allowed us to
 interface, adapt or use parts of their codes:
   Stefan Grimme, W. Hujo, H. Kruse, P. Pracht,  : VdW corrections, initial TS optimization,
                  C. Bannwarth, S. Ehlert          DFT functionals, gCP, sTDA/sTD-DF
   Ed Valeev, F. Pavosevic, A. Kumar             : LibInt (2-el integral package), F12 methods
   Garnet Chan, S. Sharma, J. Yang, R. Olivares  : DMRG
   Ulf Ekstrom                                   : XCFun DFT Library
   Mihaly Kallay                                 : mrcc  (arbitrary order and MRCC methods)
   Jiri Pittner, Ondrej Demel                    : Mk-CCSD
   Frank Weinhold                                : gennbo (NPA and NBO analysis)
   Christopher J. Cramer and Donald G. Truhlar   : smd solvation model
   Lars Goerigk                                  : TD-DFT with DH, B97 family of functionals
   V. Asgeirsson, H. Jonsson                     : NEB implementation
   FAccTs GmbH                                   : IRC, NEB, NEB-TS, DLPNO-Multilevel, CI-OPT
                                                   MM, QMMM, 2- and 3-layer-ONIOM, Crystal-QMMM,
                                                   LR-CPCM, SF, NACMEs, symmetry and pop. for TD-DFT,
                                                   nearIR, NL-DFT gradient (VV10), updates on ESD,
                                                   ML-optimized integration grids
   S Lehtola, MJT Oliveira, MAL Marques          : LibXC Library
   Liviu Ungur et al                             : ANISO software


 Your calculation uses the libint2 library for the computation of 2-el integrals
 For citations please refer to: http://libint.valeyev.net

 Your ORCA version has been built with support for libXC version: 5.1.0
 For citations please refer to: https://tddft.org/programs/libxc/

 This ORCA versions uses:
   CBLAS   interface :  Fast vector & matrix operations
   LAPACKE interface :  Fast linear algebra routines
   SCALAPACK package :  Parallel linear algebra routines
   Shared memory     :  Shared parallel matrices
   BLAS/LAPACK       :  OpenBLAS 0.3.15  USE64BITINT DYNAMIC_ARCH NO_AFFINITY Sandybridge SINGLE_THREADED
        Core in use  :  Sandybridge
   Copyright (c) 2011-2014, The OpenBLAS Project


================================================================================

----- Orbital basis set information -----
Your calculation utilizes the basis: def2-TZVP(-f)
   F. Weigend and R. Ahlrichs, Phys. Chem. Chem. Phys. 7, 3297 (2005).

----- AuxJ basis set information -----
Your calculation utilizes the auxiliary basis: def2/J
   F. Weigend, Phys. Chem. Chem. Phys. 8, 1057 (2006).

----- AuxC basis set information -----
Your calculation utilizes the auxiliary basis: def2-TZVP/C
  H-La, Hf-Rn : A. Hellweg, C. Hattig, S. Hofener and W. Klopper, Theor. Chem. Acc. 117, 587 (2007).
        Ce-Lu : J. Chmela and M. E. Harding, Mol. Phys. (2018).

================================================================================
                                        WARNINGS
                       Please study these warnings very carefully!
================================================================================


WARNING: Geometry Optimization
  ===> : Switching off AutoStart
         For restart on a previous wavefunction, please use MOREAD

INFO   : the flag for use of the SHARK integral package has been found!

================================================================================
                                       INPUT FILE
================================================================================
NAME = NMU-DCP_opt.inp
|  1> # avogadro generated ORCA input file 
|  2> # Advanced Mode
|  3> # 
|  4> ! B3LYP/G OPT Def2-TZVP(-f) Def2-TZVP/C Def2/J RIJCOSX TightSCF CPCM(Water)
|  5> %scf
|  6> 	MaxIter 125
|  7> 	CNVDIIS 1
|  8> 	CNVSOSCF 1 
|  9> end
| 10> 
| 11> * xyz 1 1
| 12>    C       -6.52579       -1.66225        0.00276
| 13>    C       -6.46732       -2.89018       -0.91965
| 14>    C       -5.38681       -3.85445       -0.40741
| 15>    H       -6.22732       -2.57278       -1.93783
| 16>    H       -7.43834       -3.38987       -0.94563
| 17>    C       -4.06259       -3.13781       -0.17971
| 18>    H       -5.26043       -4.66529       -1.12896
| 19>    H       -5.71609       -4.30232        0.53321
| 20>    C       -4.02922       -1.74920        0.05721
| 21>    N       -5.20697       -1.01658        0.09940
| 22>    H       -6.84866       -1.97186        1.00085
| 23>    H       -7.26026       -0.95654       -0.39558
| 24>    C       -5.22277        0.37600        0.57461
| 25>    C       -3.97438        1.12900        0.08763
| 26>    H       -5.24868        0.38274        1.66812
| 27>    H       -6.11324        0.89157        0.20410
| 28>    C       -2.71316        0.38456        0.55260
| 29>    H       -3.97301        2.14982        0.47653
| 30>    H       -3.98561        1.18758       -1.00372
| 31>    C       -2.79261       -1.10564        0.23908
| 32>    H       -2.59289        0.51130        1.63100
| 33>    H       -1.84179        0.83572        0.07294
| 34>    C       -2.88989       -3.89798       -0.19580
| 35>    C       -1.57875       -1.88323        0.21522
| 36>    C       -1.64825       -3.30059       -0.00293
| 37>    O       -0.36750       -1.24243        0.03312
| 38>    C        0.83818       -1.86094        0.00816
| 39>    C       -0.47469       -4.04186       -0.03135
| 40>    C        0.77715       -3.33463        0.04157
| 41>    O        1.86788       -1.21799       -0.02459
| 42>    C        1.95755       -4.16004        0.08087
| 43>    C        2.87456       -4.02280        1.12012
| 44>    C        2.20497       -5.09163       -0.92919
| 45>    N        3.28521       -5.94628       -0.87181
| 46>    C        4.23211       -5.72197        0.08585
| 47>    C        4.02925       -4.79633        1.10811
| 48>    H        1.51115       -5.24560       -1.75507
| 49>    H        4.77558       -4.67401        1.88900
| 50>    H        5.12260       -6.34646        0.04157
| 51>    H        2.70935       -3.29845        1.91436
| 52>    H       -2.94784       -4.97011       -0.37052
| 53>    H       -0.51497       -5.11660       -0.19435
| 54>    P        3.47756       -7.37894       -1.85567
| 55>    O        2.81629       -8.23814       -2.86331
| 56>    O        3.44011       -6.19882       -2.94965
| 57>    O        2.18705       -7.67771       -0.94373
| 58>    C        2.27070       -8.67930        0.09352
| 59>    C        4.64389       -5.77422       -3.63516
| 60>    C        0.94334       -8.68989        0.86659
| 61>    H        3.09316       -8.42922        0.76930
| 62>    H        2.45282       -9.65577       -0.36385
| 63>    H        4.40760       -4.86168       -4.18830
| 64>    C        5.12209       -6.85519       -4.62330
| 65>    H        5.42218       -5.55321       -2.89977
| 66>    H        0.75068       -7.70838        1.30597
| 67>    H        0.97955       -9.42831        1.67033
| 68>    H        0.11540       -8.94222        0.20038
| 69>    H        4.31434       -7.13672       -5.30280
| 70>    H        5.45894       -7.74848       -4.09298
| 71>    H        5.95638       -6.47758       -5.21806
| 72> 
| 73> 
| 74> *
| 75> 
| 76> 
| 77>                          ****END OF INPUT****
================================================================================

                       *****************************
                       * Geometry Optimization Run *
                       *****************************

Geometry optimization settings:
Update method            Update   .... BFGS
Choice of coordinates    CoordSys .... Z-matrix Internals
Initial Hessian          InHess   .... Almoef's Model

Convergence Tolerances:
Energy Change            TolE     ....  5.0000e-06 Eh
Max. Gradient            TolMAXG  ....  3.0000e-04 Eh/bohr
RMS Gradient             TolRMSG  ....  1.0000e-04 Eh/bohr
Max. Displacement        TolMAXD  ....  4.0000e-03 bohr
RMS Displacement         TolRMSD  ....  2.0000e-03 bohr
Strict Convergence                ....  False
------------------------------------------------------------------------------
                        ORCA OPTIMIZATION COORDINATE SETUP
------------------------------------------------------------------------------

The optimization will be done in new redundant internal coordinates
Making redundant internal coordinates   ...  (new redundants) done
Evaluating the initial hessian          ...  (Almloef) done
Evaluating the coordinates              ...  done
Calculating the B-matrix                .... done
Calculating the G-matrix                .... done
Diagonalizing the G-matrix              .... done
Small eigenvalue found = 1.816e-03
Small eigenvalue found = 3.443e-03
Small eigenvalue found = 5.717e-03
Small eigenvalue found = 1.060e-02
Small eigenvalue found = 1.273e-02
Small eigenvalue found = 1.695e-02
Small eigenvalue found = 2.100e-02
Small eigenvalue found = 2.923e-02
The first mode is                       ....  176
The number of degrees of freedom        ....  174

    -----------------------------------------------------------------
                    Redundant Internal Coordinates


    -----------------------------------------------------------------
         Definition                    Initial Value    Approx d2E/dq
    -----------------------------------------------------------------
      1. B(C   1,C   0)                  1.5369         0.364220   
      2. B(C   2,C   1)                  1.5361         0.365250   
      3. B(H   3,C   1)                  1.0932         0.355923   
      4. B(H   4,C   1)                  1.0924         0.356995   
      5. B(C   5,C   2)                  1.5228         0.383560   
      6. B(H   6,C   2)                  1.0927         0.356501   
      7. B(H   7,C   2)                  1.0926         0.356674   
      8. B(C   8,C   5)                  1.4091         0.582521   
      9. B(N   9,C   0)                  1.4716         0.414703   
     10. B(N   9,C   8)                  1.3877         0.564423   
     11. B(H  10,C   0)                  1.0937         0.355174   
     12. B(H  11,C   0)                  1.0937         0.355258   
     13. B(C  12,N   9)                  1.4715         0.414787   
     14. B(C  13,C  12)                  1.5371         0.363974   
     15. B(H  14,C  12)                  1.0938         0.355059   
     16. B(H  15,C  12)                  1.0936         0.355330   
     17. B(C  16,C  13)                  1.5366         0.364659   
     18. B(H  17,C  13)                  1.0924         0.356951   
     19. B(H  18,C  13)                  1.0930         0.356181   
     20. B(C  19,C  16)                  1.5249         0.380648   
     21. B(C  19,C   8)                  1.4059         0.589427   
     22. B(H  20,C  16)                  1.0925         0.356857   
     23. B(H  21,C  16)                  1.0922         0.357199   
     24. B(C  22,C   5)                  1.3976         0.607548   
     25. B(C  23,C  19)                  1.4418         0.516605   
     26. B(C  24,C  23)                  1.4357         0.528171   
     27. B(C  24,C  22)                  1.3913         0.621797   
     28. B(O  25,C  23)                  1.3824         0.575531   
     29. B(C  26,O  25)                  1.3553         0.635675   
     30. B(C  27,C  24)                  1.3884         0.628582   
     31. B(C  28,C  26)                  1.4753         0.456665   
     32. B(C  28,C  27)                  1.4397         0.520623   
     33. B(O  29,C  26)                  1.2144         1.066725   
     34. B(C  30,C  28)                  1.4409         0.518242   
     35. B(C  31,C  30)                  1.3928         0.618492   
     36. B(C  32,C  30)                  1.3962         0.610788   
     37. B(N  33,C  32)                  1.3786         0.583453   
     38. B(C  34,N  33)                  1.3653         0.612747   
     39. B(C  35,C  34)                  1.3939         0.615893   
     40. B(C  35,C  31)                  1.3899         0.625043   
     41. B(H  36,C  32)                  1.0896         0.360664   
     42. B(H  37,C  35)                  1.0871         0.363973   
     43. B(H  38,C  34)                  1.0885         0.362036   
     44. B(H  39,C  31)                  1.0876         0.363338   
     45. B(H  40,C  22)                  1.0878         0.362998   
     46. B(H  41,C  27)                  1.0878         0.363054   
     47. B(P  42,N  33)                  1.7486         0.503843   
     48. B(O  43,P  42)                  1.4801         1.350649   
     49. B(O  44,P  42)                  1.6096         0.839419   
     50. B(O  45,P  42)                  1.6082         0.843804   
     51. B(C  46,O  45)                  1.4443         0.458361   
     52. B(C  47,O  44)                  1.4489         0.450726   
     53. B(C  48,C  46)                  1.5361         0.365283   
     54. B(H  49,C  46)                  1.0935         0.355549   
     55. B(H  50,C  46)                  1.0935         0.355436   
     56. B(H  51,C  47)                  1.0929         0.356227   
     57. B(C  52,C  47)                  1.5406         0.359246   
     58. B(H  53,C  47)                  1.0933         0.355716   
     59. B(H  54,C  48)                  1.0925         0.356821   
     60. B(H  54,H  40)                  4.8977         0.000000   
     61. B(H  55,C  48)                  1.0921         0.357398   
     62. B(H  56,C  48)                  1.0922         0.357147   
     63. B(H  57,C  52)                  1.0924         0.356878   
     64. B(H  58,C  52)                  1.0921         0.357338   
     65. B(H  59,C  52)                  1.0920         0.357521   
     66. A(C   1,C   0,N   9)          110.8471         0.366008   
     67. A(C   1,C   0,H  11)          108.8137         0.322256   
     68. A(C   1,C   0,H  10)          109.4357         0.322244   
     69. A(H  10,C   0,H  11)          108.4682         0.289596   
     70. A(N   9,C   0,H  10)          109.1977         0.327222   
     71. A(N   9,C   0,H  11)          110.0385         0.327234   
     72. A(C   0,C   1,H   3)          109.5954         0.322355   
     73. A(C   2,C   1,H   3)          109.7804         0.322504   
     74. A(H   3,C   1,H   4)          107.8076         0.289913   
     75. A(C   2,C   1,H   4)          110.2457         0.322663   
     76. A(C   0,C   1,C   2)          109.1568         0.360393   
     77. A(C   0,C   1,H   4)          110.2389         0.322514   
     78. A(C   5,C   2,H   7)          109.0412         0.325216   
     79. A(H   6,C   2,H   7)          107.4068         0.289946   
     80. A(C   1,C   2,C   5)          111.4762         0.363590   
     81. A(C   5,C   2,H   6)          110.3260         0.325190   
     82. A(C   1,C   2,H   6)          109.0839         0.322590   
     83. A(C   1,C   2,H   7)          109.4147         0.322616   
     84. A(C   2,C   5,C   8)          120.6307         0.394189   
     85. A(C   2,C   5,C  22)          118.1615         0.397108   
     86. A(C   8,C   5,C  22)          121.2029         0.427671   
     87. A(C   5,C   8,N   9)          120.3512         0.419334   
     88. A(N   9,C   8,C  19)          120.0620         0.420216   
     89. A(C   5,C   8,C  19)          119.5843         0.425358   
     90. A(C   0,N   9,C   8)          121.8022         0.392363   
     91. A(C   8,N   9,C  12)          121.2360         0.392377   
     92. A(C   0,N   9,C  12)          115.2654         0.371933   
     93. A(H  14,C  12,H  15)          108.4511         0.289590   
     94. A(C  13,C  12,H  15)          108.8457         0.322231   
     95. A(N   9,C  12,H  15)          110.2109         0.327256   
     96. A(N   9,C  12,C  13)          110.6449         0.365979   
     97. A(N   9,C  12,H  14)          109.2037         0.327215   
     98. A(C  13,C  12,H  14)          109.4476         0.322191   
     99. A(C  12,C  13,H  17)          110.2440         0.322472   
    100. A(C  12,C  13,C  16)          109.4768         0.360252   
    101. A(H  17,C  13,H  18)          107.7825         0.289940   
    102. A(C  16,C  13,H  18)          109.6669         0.322457   
    103. A(C  12,C  13,H  18)          109.5275         0.322358   
    104. A(C  16,C  13,H  17)          110.1195         0.322571   
    105. A(H  20,C  16,H  21)          107.3232         0.290058   
    106. A(C  19,C  16,H  21)          110.7904         0.324888   
    107. A(C  13,C  16,H  21)          108.7732         0.322608   
    108. A(C  13,C  16,H  20)          109.4426         0.322557   
    109. A(C  13,C  16,C  19)          111.6217         0.363016   
    110. A(C  19,C  16,H  20)          108.7878         0.324837   
    111. A(C  16,C  19,C  23)          119.1173         0.385493   
    112. A(C   8,C  19,C  23)          119.4417         0.416339   
    113. A(C   8,C  19,C  16)          121.3175         0.394476   
    114. A(C   5,C  22,C  24)          120.9088         0.432710   
    115. A(C   5,C  22,H  40)          119.5518         0.352177   
    116. A(C  24,C  22,H  40)          119.5371         0.353561   
    117. A(C  24,C  23,O  25)          118.6870         0.413520   
    118. A(C  19,C  23,O  25)          119.3330         0.411897   
    119. A(C  19,C  23,C  24)          119.6164         0.408310   
    120. A(C  23,C  24,C  27)          119.2932         0.422808   
    121. A(C  22,C  24,C  27)          121.4845         0.435368   
    122. A(C  22,C  24,C  23)          119.2184         0.421989   
    123. A(C  23,O  25,C  26)          124.7756         0.424632   
    124. A(C  28,C  26,O  29)          124.3704         0.450074   
    125. A(O  25,C  26,O  29)          120.8763         0.474939   
    126. A(O  25,C  26,C  28)          114.7487         0.410153   
    127. A(C  24,C  27,C  28)          118.1440         0.421722   
    128. A(C  28,C  27,H  41)          121.6785         0.343147   
    129. A(C  24,C  27,H  41)          119.9529         0.354221   
    130. A(C  27,C  28,C  30)          115.6143         0.407499   
    131. A(C  26,C  28,C  30)          122.6112         0.398189   
    132. A(C  26,C  28,C  27)          121.7038         0.398510   
    133. A(C  31,C  30,C  32)          119.2679         0.432709   
    134. A(C  28,C  30,C  32)          120.5088         0.419224   
    135. A(C  28,C  30,C  31)          120.2174         0.420162   
    136. A(C  35,C  31,H  39)          120.2109         0.353929   
    137. A(C  30,C  31,H  39)          120.6999         0.353298   
    138. A(C  30,C  31,C  35)          119.0587         0.434509   
    139. A(N  33,C  32,H  36)          116.2890         0.347254   
    140. A(C  30,C  32,H  36)          121.9924         0.352110   
    141. A(C  30,C  32,N  33)          121.4926         0.425411   
    142. A(C  34,N  33,P  42)          116.9355         0.439937   
    143. A(C  32,N  33,P  42)          124.7991         0.436068   
    144. A(C  32,N  33,C  34)          118.0848         0.422885   
    145. A(C  35,C  34,H  38)          121.9957         0.352832   
    146. A(N  33,C  34,H  38)          116.3961         0.350358   
    147. A(N  33,C  34,C  35)          121.5053         0.429803   
    148. A(C  34,C  35,H  37)          120.1069         0.353151   
    149. A(C  31,C  35,H  37)          120.1014         0.354034   
    150. A(C  31,C  35,C  34)          119.7898         0.434180   
    151. A(O  44,P  42,O  45)          120.1945         0.549161   
    152. A(O  43,P  42,O  45)           85.3935         0.601464   
    153. A(N  33,P  42,O  45)           75.2192         0.498954   
    154. A(O  43,P  42,O  44)           87.2780         0.600860   
    155. A(N  33,P  42,O  44)           77.2410         0.498471   
    156. A(N  33,P  42,O  43)          144.0479         0.545011   
    157. A(P  42,O  44,C  47)          121.1370         0.456467   
    158. A(P  42,O  45,C  46)          119.3137         0.458302   
    159. A(H  49,C  46,H  50)          109.7208         0.289666   
    160. A(C  48,C  46,H  50)          110.3797         0.322437   
    161. A(O  45,C  46,H  50)          109.1779         0.332721   
    162. A(C  48,C  46,H  49)          109.9071         0.322453   
    163. A(O  45,C  46,H  49)          109.1958         0.332738   
    164. A(O  45,C  46,C  48)          108.4307         0.372542   
    165. A(C  52,C  47,H  53)          110.6268         0.321599   
    166. A(H  51,C  47,H  53)          108.9978         0.289789   
    167. A(O  44,C  47,H  53)          109.4164         0.331839   
    168. A(H  51,C  47,C  52)          109.1670         0.321675   
    169. A(O  44,C  47,C  52)          110.8375         0.370403   
    170. A(O  44,C  47,H  51)          107.7285         0.331918   
    171. A(H  55,C  48,H  56)          108.5323         0.290121   
    172. A(H  54,C  48,H  56)          108.6137         0.290047   
    173. A(C  46,C  48,H  56)          110.4650         0.322690   
    174. A(H  54,C  48,H  55)          108.5017         0.290079   
    175. A(C  46,C  48,H  55)          110.2678         0.322728   
    176. A(C  46,C  48,H  54)          110.4014         0.322642   
    177. A(H  58,C  52,H  59)          108.1611         0.290160   
    178. A(H  57,C  52,H  59)          108.3761         0.290102   
    179. A(C  47,C  52,H  59)          110.1121         0.321866   
    180. A(H  57,C  52,H  58)          108.6212         0.290078   
    181. A(C  47,C  52,H  58)          110.9892         0.321839   
    182. A(C  47,C  52,H  57)          110.5027         0.321771   
    183. D(C   2,C   1,C   0,H  11)    177.1375         0.010626   
    184. D(H   3,C   1,C   0,H  10)    175.2416         0.010626   
    185. D(H   4,C   1,C   0,N   9)    177.2335         0.010626   
    186. D(H   3,C   1,C   0,N   9)    -64.2612         0.010626   
    187. D(H   4,C   1,C   0,H  10)     56.7364         0.010626   
    188. D(C   2,C   1,C   0,N   9)     56.0003         0.010626   
    189. D(H   3,C   1,C   0,H  11)     56.8759         0.010626   
    190. D(C   2,C   1,C   0,H  10)    -64.4968         0.010626   
    191. D(H   4,C   1,C   0,H  11)    -61.6293         0.010626   
    192. D(H   6,C   2,C   1,C   0)   -173.1136         0.010682   
    193. D(C   5,C   2,C   1,H   4)   -172.2628         0.010682   
    194. D(H   7,C   2,C   1,C   0)     69.6560         0.010682   
    195. D(C   5,C   2,C   1,H   3)     69.1141         0.010682   
    196. D(H   6,C   2,C   1,H   3)    -52.9657         0.010682   
    197. D(C   5,C   2,C   1,C   0)    -51.0338         0.010682   
    198. D(H   7,C   2,C   1,H   3)   -170.1962         0.010682   
    199. D(H   7,C   2,C   1,H   4)    -51.5731         0.010682   
    200. D(H   6,C   2,C   1,H   4)     65.6574         0.010682   
    201. D(C  22,C   5,C   2,H   7)     82.1277         0.010966   
    202. D(C  22,C   5,C   2,H   6)    -35.6039         0.010966   
    203. D(C  22,C   5,C   2,C   1)   -156.9640         0.010966   
    204. D(C   8,C   5,C   2,H   6)    145.1977         0.010966   
    205. D(C   8,C   5,C   2,H   7)    -97.0706         0.010966   
    206. D(C   8,C   5,C   2,C   1)     23.8377         0.010966   
    207. D(C  19,C   8,C   5,C  22)      2.0442         0.023323   
    208. D(C  19,C   8,C   5,C   2)   -178.7821         0.023323   
    209. D(N   9,C   8,C   5,C   2)      0.6404         0.023323   
    210. D(N   9,C   8,C   5,C  22)   -178.5333         0.023323   
    211. D(C   8,N   9,C   0,H  10)     86.8251         0.014667   
    212. D(C   8,N   9,C   0,C   1)    -33.8133         0.014667   
    213. D(C   8,N   9,C   0,H  11)   -154.2251         0.014667   
    214. D(C  12,N   9,C   8,C  19)    -11.4424         0.025465   
    215. D(C   0,N   9,C   8,C  19)   -175.8967         0.025465   
    216. D(C  12,N   9,C   8,C   5)    169.1378         0.025465   
    217. D(C  12,N   9,C   0,H  11)     40.4535         0.014667   
    218. D(C  12,N   9,C   0,H  10)    -78.4962         0.014667   
    219. D(C   0,N   9,C   8,C   5)      4.6836         0.025465   
    220. D(C  12,N   9,C   0,C   1)    160.8653         0.014667   
    221. D(H  15,C  12,N   9,C   8)    159.2822         0.014673   
    222. D(H  15,C  12,N   9,C   0)    -35.3058         0.014673   
    223. D(H  14,C  12,N   9,C   8)    -81.6816         0.014673   
    224. D(H  14,C  12,N   9,C   0)     83.7305         0.014673   
    225. D(C  13,C  12,N   9,C   8)     38.8485         0.014673   
    226. D(C  13,C  12,N   9,C   0)   -155.7395         0.014673   
    227. D(H  18,C  13,C  12,H  15)    -57.4511         0.010612   
    228. D(H  18,C  13,C  12,H  14)   -175.8218         0.010612   
    229. D(H  18,C  13,C  12,N   9)     63.7936         0.010612   
    230. D(H  17,C  13,C  12,H  15)     60.9850         0.010612   
    231. D(H  17,C  13,C  12,H  14)    -57.3857         0.010612   
    232. D(H  17,C  13,C  12,N   9)   -177.7703         0.010612   
    233. D(C  16,C  13,C  12,H  15)   -177.7289         0.010612   
    234. D(C  16,C  13,C  12,H  14)     63.9004         0.010612   
    235. D(C  16,C  13,C  12,N   9)    -56.4842         0.010612   
    236. D(H  21,C  16,C  13,H  18)     51.0262         0.010650   
    237. D(H  21,C  16,C  13,H  17)    -67.4198         0.010650   
    238. D(H  21,C  16,C  13,C  12)    171.2189         0.010650   
    239. D(H  20,C  16,C  13,H  18)    167.9943         0.010650   
    240. D(H  20,C  16,C  13,H  17)     49.5484         0.010650   
    241. D(H  20,C  16,C  13,C  12)    -71.8129         0.010650   
    242. D(C  19,C  16,C  13,H  18)    -71.5212         0.010650   
    243. D(C  19,C  16,C  13,H  17)    170.0329         0.010650   
    244. D(C  19,C  16,C  13,C  12)     48.6716         0.010650   
    245. D(C  16,C  19,C   8,C   5)   -177.5449         0.023906   
    246. D(C  23,C  19,C  16,H  21)     39.6448         0.010810   
    247. D(C  23,C  19,C  16,C  13)    161.0295         0.010810   
    248. D(C   8,C  19,C  16,H  21)   -144.4177         0.010810   
    249. D(C   8,C  19,C  16,H  20)     97.8341         0.010810   
    250. D(C   8,C  19,C  16,C  13)    -23.0329         0.010810   
    251. D(C  23,C  19,C   8,N   9)    178.9554         0.023906   
    252. D(C  23,C  19,C  16,H  20)    -78.1034         0.010810   
    253. D(C  23,C  19,C   8,C   5)     -1.6204         0.023906   
    254. D(C  16,C  19,C   8,N   9)      3.0308         0.023906   
    255. D(H  40,C  22,C   5,C   8)    179.3298         0.025481   
    256. D(H  40,C  22,C   5,C   2)      0.1363         0.025481   
    257. D(C  24,C  22,C   5,C   8)     -1.2313         0.025481   
    258. D(C  24,C  22,C   5,C   2)    179.5752         0.025481   
    259. D(O  25,C  23,C  19,C  16)    -21.2243         0.018196   
    260. D(O  25,C  23,C  19,C   8)    162.7608         0.018196   
    261. D(C  24,C  23,C  19,C  16)    176.4492         0.018196   
    262. D(C  24,C  23,C  19,C   8)      0.4343         0.018196   
    263. D(C  27,C  24,C  23,O  25)     17.2364         0.019038   
    264. D(C  27,C  24,C  23,C  19)    179.6767         0.019038   
    265. D(C  22,C  24,C  23,O  25)   -162.0617         0.019038   
    266. D(C  22,C  24,C  23,C  19)      0.3786         0.019038   
    267. D(C  27,C  24,C  22,H  40)      0.1655         0.026763   
    268. D(C  27,C  24,C  22,C   5)   -179.2735         0.026763   
    269. D(C  23,C  24,C  22,H  40)    179.4476         0.026763   
    270. D(C  23,C  24,C  22,C   5)      0.0086         0.026763   
    271. D(C  26,O  25,C  23,C  24)    -18.3205         0.024069   
    272. D(C  26,O  25,C  23,C  19)    179.1886         0.024069   
    273. D(O  29,C  26,O  25,C  23)   -172.6811         0.029758   
    274. D(C  28,C  26,O  25,C  23)      6.5728         0.029758   
    275. D(H  41,C  27,C  24,C  23)    179.9078         0.027388   
    276. D(H  41,C  27,C  24,C  22)     -0.8106         0.027388   
    277. D(C  28,C  27,C  24,C  23)     -5.4453         0.027388   
    278. D(C  28,C  27,C  24,C  22)    173.8363         0.027388   
    279. D(C  30,C  28,C  27,H  41)     -8.6801         0.018486   
    280. D(C  30,C  28,C  27,C  24)    176.7704         0.018486   
    281. D(C  26,C  28,C  27,H  41)    168.3382         0.018486   
    282. D(C  26,C  28,C  27,C  24)     -6.2113         0.018486   
    283. D(C  30,C  28,C  26,O  29)      2.0102         0.014209   
    284. D(C  30,C  28,C  26,O  25)   -177.2139         0.014209   
    285. D(C  27,C  28,C  26,O  29)   -174.7976         0.014209   
    286. D(C  27,C  28,C  26,O  25)      5.9782         0.014209   
    287. D(C  32,C  30,C  28,C  27)     56.4101         0.018314   
    288. D(C  32,C  30,C  28,C  26)   -120.5783         0.018314   
    289. D(C  31,C  30,C  28,C  27)   -124.4823         0.018314   
    290. D(C  31,C  30,C  28,C  26)     58.5293         0.018314   
    291. D(H  39,C  31,C  30,C  32)    179.4707         0.026462   
    292. D(H  39,C  31,C  30,C  28)      0.3521         0.026462   
    293. D(C  35,C  31,C  30,C  32)      1.4779         0.026462   
    294. D(C  35,C  31,C  30,C  28)   -177.6408         0.026462   
    295. D(H  36,C  32,C  30,C  31)    179.1163         0.025769   
    296. D(H  36,C  32,C  30,C  28)     -1.7677         0.025769   
    297. D(N  33,C  32,C  30,C  31)      4.7818         0.025769   
    298. D(N  33,C  32,C  30,C  28)   -176.1021         0.025769   
    299. D(P  42,N  33,C  32,H  36)    -10.0243         0.027325   
    300. D(P  42,N  33,C  32,C  30)    164.6173         0.027325   
    301. D(C  34,N  33,C  32,H  36)    175.0221         0.027325   
    302. D(C  34,N  33,C  32,C  30)    -10.3363         0.027325   
    303. D(H  38,C  34,N  33,P  42)     10.8430         0.030348   
    304. D(H  38,C  34,N  33,C  32)   -173.8042         0.030348   
    305. D(C  35,C  34,N  33,P  42)   -165.5401         0.030348   
    306. D(C  35,C  34,N  33,C  32)      9.8127         0.030348   
    307. D(H  37,C  35,C  31,C  30)    177.5074         0.027061   
    308. D(C  34,C  35,C  31,H  39)   -179.9936         0.027061   
    309. D(C  34,C  35,C  31,C  30)     -1.9908         0.027061   
    310. D(H  37,C  35,C  34,H  38)      0.5384         0.026227   
    311. D(H  37,C  35,C  34,N  33)    176.7179         0.026227   
    312. D(C  31,C  35,C  34,H  38)   -179.9635         0.026227   
    313. D(C  31,C  35,C  34,N  33)     -3.7839         0.026227   
    314. D(H  37,C  35,C  31,H  39)     -0.4955         0.027061   
    315. D(O  45,P  42,N  33,C  34)    110.7128         0.005486   
    316. D(O  45,P  42,N  33,C  32)    -64.2934         0.005486   
    317. D(O  44,P  42,N  33,C  34)   -122.9124         0.005486   
    318. D(O  44,P  42,N  33,C  32)     62.0814         0.005486   
    319. D(O  43,P  42,N  33,C  34)    170.3632         0.005486   
    320. D(O  43,P  42,N  33,C  32)     -4.6430         0.005486   
    321. D(C  47,O  44,P  42,O  45)    170.3666         0.012244   
    322. D(C  47,O  44,P  42,O  43)   -106.5652         0.012244   
    323. D(C  47,O  44,P  42,N  33)    106.1141         0.012244   
    324. D(C  46,O  45,P  42,O  44)   -175.8129         0.012365   
    325. D(C  46,O  45,P  42,O  43)    100.0418         0.012365   
    326. D(C  46,O  45,P  42,N  33)   -110.5083         0.012365   
    327. D(H  50,C  46,O  45,P  42)    -63.6336         0.016550   
    328. D(H  49,C  46,O  45,P  42)     56.3258         0.016550   
    329. D(C  48,C  46,O  45,P  42)    176.0654         0.016550   
    330. D(H  53,C  47,O  44,P  42)    -51.9640         0.016000   
    331. D(C  52,C  47,O  44,P  42)     70.3000         0.016000   
    332. D(H  51,C  47,O  44,P  42)   -170.3270         0.016000   
    333. D(H  56,C  48,C  46,H  49)   -179.8070         0.010684   
    334. D(H  56,C  48,C  46,O  45)     60.8996         0.010684   
    335. D(H  55,C  48,C  46,H  50)     61.3131         0.010684   
    336. D(H  55,C  48,C  46,H  49)    -59.8433         0.010684   
    337. D(H  55,C  48,C  46,O  45)   -179.1367         0.010684   
    338. D(H  54,C  48,C  46,H  50)   -178.8021         0.010684   
    339. D(H  54,C  48,C  46,H  49)     60.0416         0.010684   
    340. D(H  56,C  48,C  46,H  50)    -58.6506         0.010684   
    341. D(H  54,C  48,C  46,O  45)    -59.2518         0.010684   
    342. D(H  59,C  52,C  47,H  53)    -65.2047         0.010357   
    343. D(H  59,C  52,C  47,H  51)     54.7344         0.010357   
    344. D(H  59,C  52,C  47,O  44)    173.2396         0.010357   
    345. D(H  58,C  52,C  47,H  53)     54.5315         0.010357   
    346. D(H  58,C  52,C  47,H  51)    174.4707         0.010357   
    347. D(H  58,C  52,C  47,O  44)    -67.0242         0.010357   
    348. D(H  57,C  52,C  47,H  53)    175.1017         0.010357   
    349. D(H  57,C  52,C  47,H  51)    -64.9592         0.010357   
    350. D(H  57,C  52,C  47,O  44)     53.5460         0.010357   
    -----------------------------------------------------------------

Number of atoms                         .... 60
Number of degrees of freedom            .... 350

         *************************************************************
         *                GEOMETRY OPTIMIZATION CYCLE   1            *
         *************************************************************
---------------------------------
CARTESIAN COORDINATES (ANGSTROEM)
---------------------------------
  C     -6.525790   -1.662250    0.002760
  C     -6.467320   -2.890180   -0.919650
  C     -5.386810   -3.854450   -0.407410
  H     -6.227320   -2.572780   -1.937830
  H     -7.438340   -3.389870   -0.945630
  C     -4.062590   -3.137810   -0.179710
  H     -5.260430   -4.665290   -1.128960
  H     -5.716090   -4.302320    0.533210
  C     -4.029220   -1.749200    0.057210
  N     -5.206970   -1.016580    0.099400
  H     -6.848660   -1.971860    1.000850
  H     -7.260260   -0.956540   -0.395580
  C     -5.222770    0.376000    0.574610
  C     -3.974380    1.129000    0.087630
  H     -5.248680    0.382740    1.668120
  H     -6.113240    0.891570    0.204100
  C     -2.713160    0.384560    0.552600
  H     -3.973010    2.149820    0.476530
  H     -3.985610    1.187580   -1.003720
  C     -2.792610   -1.105640    0.239080
  H     -2.592890    0.511300    1.631000
  H     -1.841790    0.835720    0.072940
  C     -2.889890   -3.897980   -0.195800
  C     -1.578750   -1.883230    0.215220
  C     -1.648250   -3.300590   -0.002930
  O     -0.367500   -1.242430    0.033120
  C      0.838180   -1.860940    0.008160
  C     -0.474690   -4.041860   -0.031350
  C      0.777150   -3.334630    0.041570
  O      1.867880   -1.217990   -0.024590
  C      1.957550   -4.160040    0.080870
  C      2.874560   -4.022800    1.120120
  C      2.204970   -5.091630   -0.929190
  N      3.285210   -5.946280   -0.871810
  C      4.232110   -5.721970    0.085850
  C      4.029250   -4.796330    1.108110
  H      1.511150   -5.245600   -1.755070
  H      4.775580   -4.674010    1.889000
  H      5.122600   -6.346460    0.041570
  H      2.709350   -3.298450    1.914360
  H     -2.947840   -4.970110   -0.370520
  H     -0.514970   -5.116600   -0.194350
  P      3.477560   -7.378940   -1.855670
  O      2.816290   -8.238140   -2.863310
  O      3.440110   -6.198820   -2.949650
  O      2.187050   -7.677710   -0.943730
  C      2.270700   -8.679300    0.093520
  C      4.643890   -5.774220   -3.635160
  C      0.943340   -8.689890    0.866590
  H      3.093160   -8.429220    0.769300
  H      2.452820   -9.655770   -0.363850
  H      4.407600   -4.861680   -4.188300
  C      5.122090   -6.855190   -4.623300
  H      5.422180   -5.553210   -2.899770
  H      0.750680   -7.708380    1.305970
  H      0.979550   -9.428310    1.670330
  H      0.115400   -8.942220    0.200380
  H      4.314340   -7.136720   -5.302800
  H      5.458940   -7.748480   -4.092980
  H      5.956380   -6.477580   -5.218060

----------------------------
CARTESIAN COORDINATES (A.U.)
----------------------------
  NO LB      ZA    FRAG     MASS         X           Y           Z
   0 C     6.0000    0    12.011  -12.331956   -3.141197    0.005216
   1 C     6.0000    0    12.011  -12.221464   -5.461649   -1.737887
   2 C     6.0000    0    12.011  -10.179596   -7.283855   -0.769893
   3 H     1.0000    0     1.008  -11.767929   -4.861850   -3.661968
   4 H     1.0000    0     1.008  -14.056425   -6.405926   -1.786982
   5 C     6.0000    0    12.011   -7.677182   -5.929602   -0.339603
   6 H     1.0000    0     1.008   -9.940772   -8.816120   -2.133425
   7 H     1.0000    0     1.008  -10.801845   -8.130207    1.007621
   8 C     6.0000    0    12.011   -7.614122   -3.305509    0.108111
   9 N     7.0000    0    14.007   -9.839747   -1.921058    0.187839
  10 H     1.0000    0     1.008  -12.942092   -3.726275    1.891332
  11 H     1.0000    0     1.008  -13.719903   -1.807599   -0.747538
  12 C     6.0000    0    12.011   -9.869605    0.710537    1.085856
  13 C     6.0000    0    12.011   -7.510490    2.133501    0.165597
  14 H     1.0000    0     1.008   -9.918568    0.723274    3.152290
  15 H     1.0000    0     1.008  -11.552349    1.684823    0.385693
  16 C     6.0000    0    12.011   -5.127129    0.726713    1.044263
  17 H     1.0000    0     1.008   -7.507901    4.062571    0.900511
  18 H     1.0000    0     1.008   -7.531711    2.244201   -1.896756
  19 C     6.0000    0    12.011   -5.277268   -2.089357    0.451796
  20 H     1.0000    0     1.008   -4.899852    0.966217    3.082143
  21 H     1.0000    0     1.008   -3.480479    1.579282    0.137837
  22 C     6.0000    0    12.011   -5.461101   -7.366115   -0.370008
  23 C     6.0000    0    12.011   -2.983405   -3.558789    0.406707
  24 C     6.0000    0    12.011   -3.114741   -6.237211   -0.005537
  25 O     8.0000    0    15.999   -0.694474   -2.347852    0.062588
  26 C     6.0000    0    12.011    1.583931   -3.516667    0.015420
  27 C     6.0000    0    12.011   -0.897034   -7.638008   -0.059243
  28 C     6.0000    0    12.011    1.468601   -6.301537    0.078556
  29 O     8.0000    0    15.999    3.529782   -2.301668   -0.046468
  30 C     6.0000    0    12.011    3.699233   -7.861336    0.152822
  31 C     6.0000    0    12.011    5.432131   -7.601990    2.116720
  32 C     6.0000    0    12.011    4.166789   -9.621786   -1.755915
  33 N     7.0000    0    14.007    6.208147  -11.236841   -1.647482
  34 C     6.0000    0    12.011    7.997529  -10.812956    0.162233
  35 C     6.0000    0    12.011    7.614179   -9.063750    2.094024
  36 H     1.0000    0     1.008    2.855660   -9.912747   -3.316602
  37 H     1.0000    0     1.008    9.024538   -8.832599    3.569693
  38 H     1.0000    0     1.008    9.680311  -11.993071    0.078556
  39 H     1.0000    0     1.008    5.119930   -6.233167    3.617616
  40 H     1.0000    0     1.008   -5.570610   -9.392147   -0.700181
  41 H     1.0000    0     1.008   -0.973152   -9.668973   -0.367268
  42 P    15.0000    0    30.974    6.571636  -13.944176   -3.506708
  43 O     8.0000    0    15.999    5.322017  -15.567828   -5.410872
  44 O     8.0000    0    15.999    6.500866  -11.714072   -5.574031
  45 O     8.0000    0    15.999    4.132926  -14.508769   -1.783391
  46 C     6.0000    0    12.011    4.291001  -16.401500    0.176727
  47 C     6.0000    0    12.011    8.775680  -10.911694   -6.869457
  48 C     6.0000    0    12.011    1.782654  -16.421512    1.637618
  49 H     1.0000    0     1.008    5.845225  -15.928917    1.453766
  50 H     1.0000    0     1.008    4.635158  -18.246761   -0.687577
  51 H     1.0000    0     1.008    8.329157   -9.187244   -7.914740
  52 C     6.0000    0    12.011    9.679347  -12.954432   -8.736771
  53 H     1.0000    0     1.008   10.246435  -10.494046   -5.479771
  54 H     1.0000    0     1.008    1.418580  -14.566727    2.467926
  55 H     1.0000    0     1.008    1.851081  -17.816924    3.156466
  56 H     1.0000    0     1.008    0.218074  -16.898347    0.378663
  57 H     1.0000    0     1.008    8.152921  -13.486446  -10.020840
  58 H     1.0000    0     1.008   10.315902  -14.642505   -7.734611
  59 H     1.0000    0     1.008   11.255927  -12.240852   -9.860704

--------------------------------
INTERNAL COORDINATES (ANGSTROEM)
--------------------------------
 C      0   0   0     0.000000000000     0.00000000     0.00000000
 C      1   0   0     1.536903065876     0.00000000     0.00000000
 C      2   1   0     1.536134209827   109.15684329     0.00000000
 H      2   1   3     1.093175773789   109.59541373   239.73845311
 H      2   1   3     1.092357495008   110.23891393   121.23319579
 C      3   2   1     1.522819355012   111.47619775   308.96624787
 H      3   2   1     1.092734099633   109.08386543   186.88644282
 H      3   2   1     1.092601866967   109.41472478    69.65595561
 C      6   3   2     1.409071458585   120.63065482    23.83769001
 N      9   6   3     1.387662467245   120.35115478     0.64042256
 H      1   2   3     1.093749074102   109.43573138   295.50318394
 H      1   2   3     1.093685302361   108.81373773   177.13745896
 C     10   9   6     1.471513928069   121.23598203   169.13780451
 C     13  10   9     1.537086891656   110.64490807    38.84846854
 H     13  10   9     1.093837682565   109.20374520   278.31841854
 H     13  10   9     1.093630150416   110.21085820   159.28217345
 C     14  13  10     1.536575381457   109.47679736   303.51576528
 H     14  13  10     1.092391211655   110.24403558   182.22966356
 H     14  13  10     1.092978751761   109.52751034    63.79361674
 C      9   6   3     1.405862888976   119.58431571   181.21789719
 H     17  14  13     1.092462567093   109.44261920   288.18706783
 H     17  14  13     1.092201784516   108.77323119   171.21892952
 C      6   3   2     1.397620337216   118.16152060   203.03604052
 C     20   9   6     1.441759899324   119.44170633   358.37964005
 C     23   6   3     1.391310008086   120.90883016   179.57518431
 O     24  20   9     1.382357266592   119.33299004   162.76080473
 C     26  24  20     1.355301399726   124.77564336   179.18859498
 C     25  23   6     1.388355856004   121.48451044   180.72650427
 C     28  25  23     1.439650994130   118.14402781   173.83634822
 O     27  26  24     1.214388469560   120.87634624   187.31893966
 C     29  28  25     1.440899135297   115.61432859   176.77036965
 C     31  29  28     1.392760826632   120.21742405   235.51771799
 C     31  29  28     1.396172549544   120.50878451    56.41010715
 N     33  31  29     1.378636117509   121.49255123   183.89786772
 C     34  33  31     1.365301161539   118.08480007   349.66366223
 C     32  31  29     1.389892764605   119.05865961   182.35924255
 H     33  31  29     1.089573644918   121.99243894   358.23230468
 H     36  32  31     1.087087780908   120.10143603   177.50740446
 H     35  34  33     1.088540728958   116.39612211   186.19578743
 H     32  31  29     1.087563535707   120.69986900     0.35205884
 H     23   6   3     1.087818007665   119.55175353     0.13629930
 H     28  25  23     1.087776422800   119.95285645   359.18944353
 P     34  33  31     1.748569042875   124.79907211   164.61726786
 O     43  34  33     1.480148986589   144.04791438   355.35702290
 O     43  34  33     1.609620438892    77.24100480    62.08139127
 O     43  34  33     1.608202144197    75.21921506   295.70658372
 C     46  43  34     1.444322475453   119.31370364   249.49165820
 C     45  43  34     1.448894547060   121.13696024   106.11405922
 C     47  46  43     1.536110003418   108.43073031   176.06541905
 H     47  46  43     1.093461963856   109.19581339    56.32584779
 H     47  46  43     1.093548660188   109.17794385   296.36642333
 H     48  45  43     1.092943765845   107.72854902   189.67304367
 C     48  45  43     1.540646630639   110.83749910    70.30004030
 H     48  45  43     1.093333982048   109.41643650   308.03597616
 H     49  47  46     1.092490064074   110.40138898   300.74817249
 H     49  47  46     1.092050020878   110.26780252   180.86331902
 H     49  47  46     1.092241198912   110.46503273    60.89958702
 H     53  48  45     1.092446544871   110.50274745    53.54599099
 H     53  48  45     1.092096263614   110.98922331   292.97583259
 H     53  48  45     1.091956305811   110.11209085   173.23959381

---------------------------
INTERNAL COORDINATES (A.U.)
---------------------------
 C      0   0   0     0.000000000000     0.00000000     0.00000000
 C      1   0   0     2.904325888890     0.00000000     0.00000000
 C      2   1   0     2.902872961520   109.15684329     0.00000000
 H      2   1   3     2.065802828699   109.59541373   239.73845311
 H      2   1   3     2.064256505901   110.23891393   121.23319579
 C      3   2   1     2.877711532408   111.47619775   308.96624787
 H      3   2   1     2.064968185503   109.08386543   186.88644282
 H      3   2   1     2.064718301979   109.41472478    69.65595561
 C      6   3   2     2.662759159851   120.63065482    23.83769001
 N      9   6   3     2.622302029414   120.35115478     0.64042256
 H      1   2   3     2.066886209284   109.43573138   295.50318394
 H      1   2   3     2.066765698157   108.81373773   177.13745896
 C     10   9   6     2.780758326300   121.23598203   169.13780451
 C     13  10   9     2.904673269270   110.64490807    38.84846854
 H     13  10   9     2.067053655012   109.20374520   278.31841854
 H     13  10   9     2.066661476086   110.21085820   159.28217345
 C     14  13  10     2.903706655079   109.47679736   303.51576528
 H     14  13  10     2.064320221129   110.24403558   182.22966356
 H     14  13  10     2.065430511022   109.52751034    63.79361674
 C      9   6   3     2.656695842008   119.58431571   181.21789719
 H     17  14  13     2.064455063367   109.44261920   288.18706783
 H     17  14  13     2.063962255715   108.77323119   171.21892952
 C      6   3   2     2.641119676537   118.16152060   203.03604052
 C     20   9   6     2.724531360593   119.44170633   358.37964005
 C     23   6   3     2.629194882666   120.90883016   179.57518431
 O     24  20   9     2.612276653095   119.33299004   162.76080473
 C     26  24  20     2.561148474403   124.77564336   179.18859498
 C     25  23   6     2.623612344273   121.48451044   180.72650427
 C     28  25  23     2.720546107334   118.14402781   173.83634822
 O     27  26  24     2.294861627660   120.87634624   187.31893966
 C     29  28  25     2.722904752316   115.61432859   176.77036965
 C     31  29  28     2.631936532388   120.21742405   235.51771799
 C     31  29  28     2.638383754337   120.50878451    56.41010715
 N     33  31  29     2.605244700424   121.49255123   183.89786772
 C     34  33  31     2.580045285633   118.08480007   349.66366223
 C     32  31  29     2.626516680621   119.05865961   182.35924255
 H     33  31  29     2.058995791633   121.99243894   358.23230468
 H     36  32  31     2.054298189449   120.10143603   177.50740446
 H     35  34  33     2.057043863349   116.39612211   186.19578743
 H     32  31  29     2.055197235726   120.69986900     0.35205884
 H     23   6   3     2.055678118034   119.55175353     0.13629930
 H     28  25  23     2.055599534029   119.95285645   359.18944353
 P     34  33  31     3.304316617286   124.79907211   164.61726786
 O     43  34  33     2.797076222054   144.04791438   355.35702290
 O     43  34  33     3.041741809069    77.24100480    62.08139127
 O     43  34  33     3.039061620517    75.21921506   295.70658372
 C     46  43  34     2.729373927674   119.31370364   249.49165820
 C     45  43  34     2.738013890875   121.13696024   106.11405922
 C     47  46  43     2.902827218036   108.43073031   176.06541905
 H     47  46  43     2.066343649548   109.19581339    56.32584779
 H     47  46  43     2.066507481873   109.17794385   296.36642333
 H     48  45  43     2.065364397224   107.72854902   189.67304367
 C     48  45  43     2.911400201057   110.83749910    70.30004030
 H     48  45  43     2.066101798979   109.41643650   308.03597616
 H     49  47  46     2.064507025130   110.40138898   300.74817249
 H     49  47  46     2.063675464003   110.26780252   180.86331902
 H     49  47  46     2.064036738129   110.46503273    60.89958702
 H     53  48  45     2.064424785754   110.50274745    53.54599099
 H     53  48  45     2.063762850109   110.98922331   292.97583259
 H     53  48  45     2.063498368191   110.11209085   173.23959381

---------------------
BASIS SET INFORMATION
---------------------
There are 5 groups of distinct atoms

 Group   1 Type C   : 11s6p2d contracted to 5s3p2d pattern {62111/411/11}
 Group   2 Type H   : 5s1p contracted to 3s1p pattern {311/1}
 Group   3 Type N   : 11s6p2d contracted to 5s3p2d pattern {62111/411/11}
 Group   4 Type O   : 11s6p2d contracted to 5s3p2d pattern {62111/411/11}
 Group   5 Type P   : 14s9p3d contracted to 5s5p2d pattern {73211/51111/21}

Atom   0C    basis set group =>   1
Atom   1C    basis set group =>   1
Atom   2C    basis set group =>   1
Atom   3H    basis set group =>   2
Atom   4H    basis set group =>   2
Atom   5C    basis set group =>   1
Atom   6H    basis set group =>   2
Atom   7H    basis set group =>   2
Atom   8C    basis set group =>   1
Atom   9N    basis set group =>   3
Atom  10H    basis set group =>   2
Atom  11H    basis set group =>   2
Atom  12C    basis set group =>   1
Atom  13C    basis set group =>   1
Atom  14H    basis set group =>   2
Atom  15H    basis set group =>   2
Atom  16C    basis set group =>   1
Atom  17H    basis set group =>   2
Atom  18H    basis set group =>   2
Atom  19C    basis set group =>   1
Atom  20H    basis set group =>   2
Atom  21H    basis set group =>   2
Atom  22C    basis set group =>   1
Atom  23C    basis set group =>   1
Atom  24C    basis set group =>   1
Atom  25O    basis set group =>   4
Atom  26C    basis set group =>   1
Atom  27C    basis set group =>   1
Atom  28C    basis set group =>   1
Atom  29O    basis set group =>   4
Atom  30C    basis set group =>   1
Atom  31C    basis set group =>   1
Atom  32C    basis set group =>   1
Atom  33N    basis set group =>   3
Atom  34C    basis set group =>   1
Atom  35C    basis set group =>   1
Atom  36H    basis set group =>   2
Atom  37H    basis set group =>   2
Atom  38H    basis set group =>   2
Atom  39H    basis set group =>   2
Atom  40H    basis set group =>   2
Atom  41H    basis set group =>   2
Atom  42P    basis set group =>   5
Atom  43O    basis set group =>   4
Atom  44O    basis set group =>   4
Atom  45O    basis set group =>   4
Atom  46C    basis set group =>   1
Atom  47C    basis set group =>   1
Atom  48C    basis set group =>   1
Atom  49H    basis set group =>   2
Atom  50H    basis set group =>   2
Atom  51H    basis set group =>   2
Atom  52C    basis set group =>   1
Atom  53H    basis set group =>   2
Atom  54H    basis set group =>   2
Atom  55H    basis set group =>   2
Atom  56H    basis set group =>   2
Atom  57H    basis set group =>   2
Atom  58H    basis set group =>   2
Atom  59H    basis set group =>   2
---------------------------------
AUXILIARY/J BASIS SET INFORMATION
---------------------------------
There are 5 groups of distinct atoms

 Group   1 Type C   : 12s5p4d2f1g contracted to 6s4p3d1f1g pattern {711111/2111/211/2/1}
 Group   2 Type H   : 5s2p1d contracted to 3s1p1d pattern {311/2/1}
 Group   3 Type N   : 12s5p4d2f1g contracted to 6s4p3d1f1g pattern {711111/2111/211/2/1}
 Group   4 Type O   : 12s5p4d2f1g contracted to 6s4p3d1f1g pattern {711111/2111/211/2/1}
 Group   5 Type P   : 14s5p5d2f1g contracted to 8s4p3d1f1g pattern {71111111/2111/311/2/1}

Atom   0C    basis set group =>   1
Atom   1C    basis set group =>   1
Atom   2C    basis set group =>   1
Atom   3H    basis set group =>   2
Atom   4H    basis set group =>   2
Atom   5C    basis set group =>   1
Atom   6H    basis set group =>   2
Atom   7H    basis set group =>   2
Atom   8C    basis set group =>   1
Atom   9N    basis set group =>   3
Atom  10H    basis set group =>   2
Atom  11H    basis set group =>   2
Atom  12C    basis set group =>   1
Atom  13C    basis set group =>   1
Atom  14H    basis set group =>   2
Atom  15H    basis set group =>   2
Atom  16C    basis set group =>   1
Atom  17H    basis set group =>   2
Atom  18H    basis set group =>   2
Atom  19C    basis set group =>   1
Atom  20H    basis set group =>   2
Atom  21H    basis set group =>   2
Atom  22C    basis set group =>   1
Atom  23C    basis set group =>   1
Atom  24C    basis set group =>   1
Atom  25O    basis set group =>   4
Atom  26C    basis set group =>   1
Atom  27C    basis set group =>   1
Atom  28C    basis set group =>   1
Atom  29O    basis set group =>   4
Atom  30C    basis set group =>   1
Atom  31C    basis set group =>   1
Atom  32C    basis set group =>   1
Atom  33N    basis set group =>   3
Atom  34C    basis set group =>   1
Atom  35C    basis set group =>   1
Atom  36H    basis set group =>   2
Atom  37H    basis set group =>   2
Atom  38H    basis set group =>   2
Atom  39H    basis set group =>   2
Atom  40H    basis set group =>   2
Atom  41H    basis set group =>   2
Atom  42P    basis set group =>   5
Atom  43O    basis set group =>   4
Atom  44O    basis set group =>   4
Atom  45O    basis set group =>   4
Atom  46C    basis set group =>   1
Atom  47C    basis set group =>   1
Atom  48C    basis set group =>   1
Atom  49H    basis set group =>   2
Atom  50H    basis set group =>   2
Atom  51H    basis set group =>   2
Atom  52C    basis set group =>   1
Atom  53H    basis set group =>   2
Atom  54H    basis set group =>   2
Atom  55H    basis set group =>   2
Atom  56H    basis set group =>   2
Atom  57H    basis set group =>   2
Atom  58H    basis set group =>   2
Atom  59H    basis set group =>   2
---------------------------------
AUXILIARY/C BASIS SET INFORMATION
---------------------------------
There are 5 groups of distinct atoms

 Group   1 Type C   : 8s6p5d3f1g contracted to 8s6p4d3f1g pattern {11111111/111111/2111/111/1}
 Group   2 Type H   : 4s3p2d contracted to 4s2p1d pattern {1111/21/2}
 Group   3 Type N   : 8s6p5d3f1g contracted to 8s6p4d3f1g pattern {11111111/111111/2111/111/1}
 Group   4 Type O   : 8s6p5d3f1g contracted to 8s6p4d3f1g pattern {11111111/111111/2111/111/1}
 Group   5 Type P   : 10s7p7d5f2g contracted to 9s7p6d5f2g pattern {211111111/1111111/211111/11111/11}

Atom   0C    basis set group =>   1
Atom   1C    basis set group =>   1
Atom   2C    basis set group =>   1
Atom   3H    basis set group =>   2
Atom   4H    basis set group =>   2
Atom   5C    basis set group =>   1
Atom   6H    basis set group =>   2
Atom   7H    basis set group =>   2
Atom   8C    basis set group =>   1
Atom   9N    basis set group =>   3
Atom  10H    basis set group =>   2
Atom  11H    basis set group =>   2
Atom  12C    basis set group =>   1
Atom  13C    basis set group =>   1
Atom  14H    basis set group =>   2
Atom  15H    basis set group =>   2
Atom  16C    basis set group =>   1
Atom  17H    basis set group =>   2
Atom  18H    basis set group =>   2
Atom  19C    basis set group =>   1
Atom  20H    basis set group =>   2
Atom  21H    basis set group =>   2
Atom  22C    basis set group =>   1
Atom  23C    basis set group =>   1
Atom  24C    basis set group =>   1
Atom  25O    basis set group =>   4
Atom  26C    basis set group =>   1
Atom  27C    basis set group =>   1
Atom  28C    basis set group =>   1
Atom  29O    basis set group =>   4
Atom  30C    basis set group =>   1
Atom  31C    basis set group =>   1
Atom  32C    basis set group =>   1
Atom  33N    basis set group =>   3
Atom  34C    basis set group =>   1
Atom  35C    basis set group =>   1
Atom  36H    basis set group =>   2
Atom  37H    basis set group =>   2
Atom  38H    basis set group =>   2
Atom  39H    basis set group =>   2
Atom  40H    basis set group =>   2
Atom  41H    basis set group =>   2
Atom  42P    basis set group =>   5
Atom  43O    basis set group =>   4
Atom  44O    basis set group =>   4
Atom  45O    basis set group =>   4
Atom  46C    basis set group =>   1
Atom  47C    basis set group =>   1
Atom  48C    basis set group =>   1
Atom  49H    basis set group =>   2
Atom  50H    basis set group =>   2
Atom  51H    basis set group =>   2
Atom  52C    basis set group =>   1
Atom  53H    basis set group =>   2
Atom  54H    basis set group =>   2
Atom  55H    basis set group =>   2
Atom  56H    basis set group =>   2
Atom  57H    basis set group =>   2
Atom  58H    basis set group =>   2
Atom  59H    basis set group =>   2
------------------------------------------------------------------------------
                           ORCA GTO INTEGRAL CALCULATION
                           -- RI-GTO INTEGRALS CHOSEN --
------------------------------------------------------------------------------
------------------------------------------------------------------------------
                   ___                                                        
                  /   \      - P O W E R E D   B Y -                         
                 /     \                                                     
                 |  |  |   _    _      __       _____    __    __             
                 |  |  |  | |  | |    /  \     |  _  \  |  |  /  |          
                  \  \/   | |  | |   /    \    | | | |  |  | /  /          
                 / \  \   | |__| |  /  /\  \   | |_| |  |  |/  /          
                |  |  |   |  __  | /  /__\  \  |    /   |      \           
                |  |  |   | |  | | |   __   |  |    \   |  |\   \          
                \     /   | |  | | |  |  |  |  | |\  \  |  | \   \       
                 \___/    |_|  |_| |__|  |__|  |_| \__\ |__|  \__/        
                                                                              
                      - O R C A' S   B I G   F R I E N D -                    
                                      &                                       
                       - I N T E G R A L  F E E D E R -                       
                                                                              
 v1 FN, 2020, v2 2021                                                         
------------------------------------------------------------------------------


Reading SHARK input file NMU-DCP_opt.SHARKINP.tmp ... ok
----------------------
SHARK INTEGRAL PACKAGE
----------------------

Number of atoms                             ...     60
Number of basis functions                   ...    942
Number of shells                            ...    434
Maximum angular momentum                    ...      2
Integral batch strategy                     ... SHARK/LIBINT Hybrid
RI-J (if used) integral strategy            ... SPLIT-RIJ (Revised 2003 algorithm where possible)
Printlevel                                  ...      1
Contraction scheme used                     ... SEGMENTED contraction
Coulomb Range Separation                    ... NOT USED
Exchange Range Separation                   ... NOT USED
Finite Nucleus Model                        ... NOT USED
Auxiliary Coulomb fitting basis             ... AVAILABLE
   # of basis functions in Aux-J            ...   1878
   # of shells in Aux-J                     ...    622
   Maximum angular momentum in Aux-J        ...      4
Auxiliary J/K fitting basis                 ... NOT available
Auxiliary Correlation fitting basis         ... AVAILABLE
   # of basis functions in Aux-C            ...   2889
   # of shells in Aux-C                     ...    907
   Maximum angular momentum in Aux-C        ...      4
Auxiliary 'external' fitting basis          ... NOT available
Integral threshold                          ...     2.500000e-11
Primitive cut-off                           ...     2.500000e-12
Primitive pair pre-selection threshold      ...     2.500000e-12

Calculating pre-screening integrals         ... done (  1.8 sec) Dimension = 434
Organizing shell pair data                  ... done (  2.8 sec)
Shell pair information
Total number of shell pairs                 ...     94395
Shell pairs after pre-screening             ...     51645
Total number of primitive shell pairs       ...    307738
Primitive shell pairs kept                  ...    106970
          la=0 lb=0:  15475 shell pairs
          la=1 lb=0:  17424 shell pairs
          la=1 lb=1:   4919 shell pairs
          la=2 lb=0:   8112 shell pairs
          la=2 lb=1:   4620 shell pairs
          la=2 lb=2:   1095 shell pairs

Calculating one electron integrals          ... done (  0.6 sec)
Calculating RI/J V-Matrix + Cholesky decomp.... done (  3.6 sec)
Calculating RI/C V-Matrix + Cholesky decomp.... done (  5.3 sec)
Calculating Nuclear repulsion               ... done (  0.0 sec) ENN=   3432.086460483396 Eh

SHARK setup successfully completed in  16.0 seconds

Maximum memory used throughout the entire GTOINT-calculation: 355.6 MB
-------------------------------------------------------------------------------
                                 ORCA SCF
-------------------------------------------------------------------------------

------------
SCF SETTINGS
------------
Hamiltonian:
 Density Functional     Method          .... DFT(GTOs)
 Exchange Functional    Exchange        .... B88
   X-Alpha parameter    XAlpha          ....  0.666667
   Becke's b parameter  XBeta           ....  0.004200
 Correlation Functional Correlation     .... LYP
 LDA part of GGA corr.  LDAOpt          .... VWN-3
 Gradients option       PostSCFGGA      .... off
 Hybrid DFT is turned on
   Fraction HF Exchange ScalHFX         ....  0.200000
   Scaling of DF-GGA-X  ScalDFX         ....  0.720000
   Scaling of DF-GGA-C  ScalDFC         ....  0.810000
   Scaling of DF-LDA-C  ScalLDAC        ....  1.000000
   Perturbative correction              ....  0.000000
   Density functional embedding theory  .... OFF
   NL short-range parameter             ....  4.800000
 RI-approximation to the Coulomb term is turned on
   Number of AuxJ basis functions       .... 1878
   RIJ-COSX (HFX calculated with COS-X)).... on


General Settings:
 Integral files         IntName         .... NMU-DCP_opt
 Hartree-Fock type      HFTyp           .... RHF
 Total Charge           Charge          ....    1
 Multiplicity           Mult            ....    1
 Number of Electrons    NEL             ....  240
 Basis Dimension        Dim             ....  942
 Nuclear Repulsion      ENuc            ....   3432.0864604834 Eh

Convergence Acceleration:
 DIIS                   CNVDIIS         .... on
   Start iteration      DIISMaxIt       ....    12
   Startup error        DIISStart       ....  0.200000
   # of expansion vecs  DIISMaxEq       ....     5
   Bias factor          DIISBfac        ....   1.050
   Max. coefficient     DIISMaxC        ....  10.000
 Trust-Rad. Augm. Hess. CNVTRAH         .... auto
   Auto Start mean grad. ratio tolernc. ....  1.125000
   Auto Start start iteration           ....    20
   Auto Start num. interpolation iter.  ....    10
   Max. Number of Micro iterations      ....    16
   Max. Number of Macro iterations      .... Maxiter - #DIIS iter
   Number of Davidson start vectors     ....     2
   Converg. threshold I  (grad. norm)   ....   1.000e-05
   Converg. threshold II (energy diff.) ....   1.000e-08
   Grad. Scal. Fac. for Micro threshold ....   0.100
   Minimum threshold for Micro iter.    ....   0.010
   NR start threshold (gradient norm)   ....   0.001
   Initial trust radius                 ....   0.400
   Minimum AH scaling param. (alpha)    ....   1.000
   Maximum AH scaling param. (alpha)    .... 1000.000
   Orbital update algorithm             .... Taylor
   White noise on init. David. guess    .... on
   Maximum white noise                  ....   0.010
   Quad. conv. algorithm                .... NR
 SOSCF                  CNVSOSCF        .... on
   Start iteration      SOSCFMaxIt      ....   150
   Startup grad/error   SOSCFStart      ....  0.003300
 Level Shifting         CNVShift        .... on
   Level shift para.    LevelShift      ....    0.2500
   Turn off err/grad.   ShiftErr        ....    0.0010
 Zerner damping         CNVZerner       .... off
 Static damping         CNVDamp         .... on
   Fraction old density DampFac         ....    0.7000
   Max. Damping (<1)    DampMax         ....    0.9800
   Min. Damping (>=0)   DampMin         ....    0.0000
   Turn off err/grad.   DampErr         ....    0.1000
 Fernandez-Rico         CNVRico         .... off

SCF Procedure:
 Maximum # iterations   MaxIter         ....   125
 SCF integral mode      SCFMode         .... Direct
   Integral package                     .... SHARK and LIBINT hybrid scheme
 Reset frequency        DirectResetFreq ....    20
 Integral Threshold     Thresh          ....  2.500e-11 Eh
 Primitive CutOff       TCut            ....  2.500e-12 Eh

Convergence Tolerance:
 Convergence Check Mode ConvCheckMode   .... Total+1el-Energy
 Convergence forced     ConvForced      .... 0
 Energy Change          TolE            ....  1.000e-08 Eh
 1-El. energy change                    ....  1.000e-05 Eh
 Orbital Gradient       TolG            ....  1.000e-05
 Orbital Rotation angle TolX            ....  1.000e-05
 DIIS Error             TolErr          ....  5.000e-07


Diagonalization of the overlap matrix:
Smallest eigenvalue                        ... 4.833e-06
Time for diagonalization                   ...    0.329 sec
Threshold for overlap eigenvalues          ... 1.000e-08
Number of eigenvalues below threshold      ... 0
Time for construction of square roots      ...    0.692 sec
Total time needed                          ...    1.024 sec

Time for model grid setup =    4.463 sec

------------------------------
INITIAL GUESS: MODEL POTENTIAL
------------------------------
Loading Hartree-Fock densities                     ... done
Calculating cut-offs                               ... done
Initializing the effective Hamiltonian             ... done
Setting up the integral package (SHARK)            ... done
Starting the Coulomb interaction                   ... done (   9.3 sec)
Reading the grid                                   ... done
Mapping shells                                     ... done
Starting the XC term evaluation                    ... done (   3.2 sec)
  promolecular density results
     # of electrons  =    240.985748997
     EX              =   -208.722992507
     EC              =     -8.351344606
     EX+EC           =   -217.074337113
Transforming the Hamiltonian                       ... done (   0.2 sec)
Diagonalizing the Hamiltonian                      ... done (   0.3 sec)
Back transforming the eigenvectors                 ... done (   0.1 sec)
Now organizing SCF variables                       ... done
                      ------------------
                      INITIAL GUESS DONE (  17.6 sec)
                      ------------------
-------------------
DFT GRID GENERATION
-------------------

General Integration Accuracy     IntAcc      ... 4.388
Radial Grid Type                 RadialGrid  ... OptM3 with GC (2021)
Angular Grid (max. ang.)         AngularGrid ... 4 (Lebedev-302)
Angular grid pruning method      GridPruning ... 4 (adaptive)
Weight generation scheme         WeightScheme... Becke
Basis function cutoff            BFCut       ... 1.0000e-11
Integration weight cutoff        WCut        ... 1.0000e-14
Angular grids for H and He will be reduced by one unit
Partially contracted basis set               ... off
Rotationally invariant grid construction     ... off

Total number of grid points                  ...   280847
Total number of batches                      ...     4419
Average number of points per batch           ...       63
Average number of grid points per atom       ...     4681
Time for grid setup =   13.415 sec

--------------------
COSX GRID GENERATION
--------------------

GRIDX 1
-------
General Integration Accuracy     IntAcc      ... 3.816
Radial Grid Type                 RadialGrid  ... OptM3 with GC (2021)
Angular Grid (max. ang.)         AngularGrid ... 1 (Lebedev-50)
Angular grid pruning method      GridPruning ... 4 (adaptive)
Weight generation scheme         WeightScheme... Becke
Basis function cutoff            BFCut       ... 1.0000e-11
Integration weight cutoff        WCut        ... 1.0000e-14
Angular grids for H and He will be reduced by one unit
Partially contracted basis set               ... on
Rotationally invariant grid construction     ... off

Total number of grid points                  ...    35627
Total number of batches                      ...      590
Average number of points per batch           ...       60
Average number of grid points per atom       ...      594
UseSFitting                                  ... on

GRIDX 2
-------
General Integration Accuracy     IntAcc      ... 4.020
Radial Grid Type                 RadialGrid  ... OptM3 with GC (2021)
Angular Grid (max. ang.)         AngularGrid ... 2 (Lebedev-110)
Angular grid pruning method      GridPruning ... 4 (adaptive)
Weight generation scheme         WeightScheme... Becke
Basis function cutoff            BFCut       ... 1.0000e-11
Integration weight cutoff        WCut        ... 1.0000e-14
Angular grids for H and He will be reduced by one unit
Partially contracted basis set               ... on
Rotationally invariant grid construction     ... off

Total number of grid points                  ...    76429
Total number of batches                      ...     1229
Average number of points per batch           ...       62
Average number of grid points per atom       ...     1274
UseSFitting                                  ... on

GRIDX 3
-------
General Integration Accuracy     IntAcc      ... 4.338
Radial Grid Type                 RadialGrid  ... OptM3 with GC (2021)
Angular Grid (max. ang.)         AngularGrid ... 3 (Lebedev-194)
Angular grid pruning method      GridPruning ... 4 (adaptive)
Weight generation scheme         WeightScheme... Becke
Basis function cutoff            BFCut       ... 1.0000e-11
Integration weight cutoff        WCut        ... 1.0000e-14
Angular grids for H and He will be reduced by one unit
Partially contracted basis set               ... on
Rotationally invariant grid construction     ... off

Total number of grid points                  ...   167110
Total number of batches                      ...     2642
Average number of points per batch           ...       63
Average number of grid points per atom       ...     2785
UseSFitting                                  ... on

Time for X-Grid setup             =   22.070 sec


--------------------
CPCM SOLVATION MODEL
--------------------
CPCM parameters:
  Epsilon                                         ...      80.4000
  Refrac                                          ...       1.3300
  Rsolv                                           ...       1.3000
  Surface type                                    ... GAUSSIAN VDW
  Epsilon function type                           ...         CPCM
Radii:
 Radius for C  used is    3.8550 Bohr (=   2.0400 Ang.)
 Radius for H  used is    2.4944 Bohr (=   1.3200 Ang.)
 Radius for N  used is    3.5149 Bohr (=   1.8600 Ang.)
 Radius for O  used is    3.4469 Bohr (=   1.8240 Ang.)
 Radius for P  used is    4.0818 Bohr (=   2.1600 Ang.)
Calculating surface                               ...        done! (  0.0s)
GEPOL surface points                              ...         3103
GEPOL Volume                                      ...    3466.0921
GEPOL Surface-area                                ...    1720.8612
Calculating surface distance matrix               ...        done! (  0.2s)
Performing Cholesky decomposition & store         ...        done! (  3.2s)
Overall time for CPCM initialization              ...                 3.4s
--------------
SCF ITERATIONS
--------------
ITER       Energy         Delta-E        Max-DP      RMS-DP      [F,P]     Damp
               ***  Starting incremental Fock matrix formation  ***
  0  -1757.5547456751   0.000000000000 0.21652454  0.00102510  0.4253028 0.7000
  1  -1758.0576002828  -0.502854607643 0.11264455  0.00071486  0.1255746 0.7000
                               ***Turning on DIIS***
  2  -1758.2283867511  -0.170786468363 0.24129623  0.00121074  0.0398592 0.0000
  3  -1758.5277510209  -0.299364269745 0.10323811  0.00055131  0.0634785 0.0000
  4  -1758.5905617948  -0.062810773909 0.02164503  0.00019367  0.0569466 0.0000
  5  -1758.5994803353  -0.008918540511 0.01677748  0.00010755  0.0129322 0.0000
  6  -1758.6005826142  -0.001102278935 0.00981730  0.00006600  0.0047926 0.0000
  7  -1758.6011495235  -0.000566909223 0.01036941  0.00005048  0.0019218 0.0000
  8  -1758.6015360949  -0.000386571449 0.01144059  0.00005219  0.0014772 0.0000
  9  -1758.6018158062  -0.000279711265 0.00758115  0.00003682  0.0014717 0.0000
                      *** Initiating the SOSCF procedure ***
                           *** Shutting down DIIS ***
                      *** Re-Reading the Fockian *** 
                      *** Removing any level shift *** 
ITER      Energy       Delta-E        Grad      Rot      Max-DP    RMS-DP
 10  -1758.60203972  -0.0002239125  0.002869  0.002869  0.090337  0.000379
               *** Restarting incremental Fock matrix formation ***
 11  -1758.59739554   0.0046441790  0.020520  0.410393  0.148436  0.000939
 12  -1758.54838562   0.0490099164  0.025662  0.101223  0.045738  0.000424
 13  -1758.59564053  -0.0472549094  0.012417  0.286737  0.115670  0.000685
[...]
      py      :     0.013836
 22 C s       :     2.759715  s :     2.759715
      pz      :     0.891928  p :     2.921148
      px      :     1.031455
      py      :     0.997764
      dz2     :     0.024836  d :     0.379103
      dxz     :     0.088395
      dyz     :     0.015885
      dx2y2   :     0.152940
      dxy     :     0.097048
 23 C s       :     2.709151  s :     2.709151
      pz      :     0.877706  p :     2.736287
      px      :     0.854220
      py      :     1.004360
      dz2     :     0.047707  d :     0.638955
      dxz     :     0.116123
      dyz     :     0.088994
      dx2y2   :     0.179461
      dxy     :     0.206670
 24 C s       :     2.698305  s :     2.698305
      pz      :     0.921477  p :     2.931111
      px      :     1.007581
      py      :     1.002052
      dz2     :     0.036958  d :     0.500025
      dxz     :     0.074089
      dyz     :     0.068443
      dx2y2   :     0.168427
      dxy     :     0.152108
 25 O s       :     3.271621  s :     3.271621
      pz      :     1.561695  p :     4.401824
      px      :     1.270036
      py      :     1.570094
      dz2     :     0.011463  d :     0.102673
      dxz     :     0.021759
      dyz     :     0.005675
      dx2y2   :     0.025787
      dxy     :     0.037989
 26 C s       :     2.741834  s :     2.741834
      pz      :     0.780579  p :     2.622291
      px      :     0.852226
      py      :     0.989486
      dz2     :     0.064942  d :     0.884091
      dxz     :     0.148689
      dyz     :     0.107797
      dx2y2   :     0.296023
      dxy     :     0.266640
 27 C s       :     2.764512  s :     2.764512
      pz      :     0.811332  p :     2.854184
      px      :     1.036351
      py      :     1.006501
      dz2     :     0.025915  d :     0.387567
      dxz     :     0.099314
      dyz     :     0.015653
      dx2y2   :     0.148634
      dxy     :     0.098051
 28 C s       :     2.712223  s :     2.712223
      pz      :     0.959750  p :     2.940156
      px      :     0.996239
      py      :     0.984166
      dz2     :     0.034352  d :     0.450533
      dxz     :     0.066661
      dyz     :     0.048791
      dx2y2   :     0.163442
      dxy     :     0.137288
 29 O s       :     3.436827  s :     3.436827
      pz      :     1.416090  p :     4.562533
      px      :     1.542392
      py      :     1.604051
      dz2     :     0.007764  d :     0.066347
      dxz     :     0.012115
      dyz     :     0.006383
      dx2y2   :     0.016987
      dxy     :     0.023096
 30 C s       :     2.714025  s :     2.714025
      pz      :     0.944198  p :     2.866748
      px      :     0.975796
      py      :     0.946754
      dz2     :     0.071832  d :     0.492310
      dxz     :     0.113863
      dyz     :     0.086597
      dx2y2   :     0.113528
      dxy     :     0.106490
 31 C s       :     2.776977  s :     2.776977
      pz      :     0.901212  p :     2.857123
      px      :     1.014726
      py      :     0.941185
      dz2     :     0.046210  d :     0.364294
      dxz     :     0.080070
      dyz     :     0.061511
      dx2y2   :     0.100057
      dxy     :     0.076446
 32 C s       :     2.772102  s :     2.772102
      pz      :     0.954073  p :     2.820602
      px      :     0.915595
      py      :     0.950934
      dz2     :     0.056633  d :     0.434472
      dxz     :     0.097804
      dyz     :     0.061233
      dx2y2   :     0.102218
      dxy     :     0.116585
 33 N s       :     2.967247  s :     2.967247
      pz      :     1.236471  p :     3.695311
      px      :     1.223152
      py      :     1.235689
      dz2     :     0.033831  d :     0.261557
      dxz     :     0.056571
      dyz     :     0.044130
      dx2y2   :     0.071484
      dxy     :     0.055540
 34 C s       :     2.784085  s :     2.784085
      pz      :     0.912415  p :     2.836967
      px      :     0.934981
      py      :     0.989572
      dz2     :     0.100202  d :     0.441971
      dxz     :     0.085810
      dyz     :     0.070062
      dx2y2   :     0.070079
      dxy     :     0.115818
 35 C s       :     2.776694  s :     2.776694
      pz      :     0.950075  p :     2.951576
      px      :     1.009406
      py      :     0.992095
      dz2     :     0.041913  d :     0.354158
      dxz     :     0.080621
      dyz     :     0.056849
      dx2y2   :     0.089593
      dxy     :     0.085182
 36 H s       :     0.772524  s :     0.772524
      pz      :     0.025763  p :     0.065328
      px      :     0.026566
      py      :     0.012999
 37 H s       :     0.775852  s :     0.775852
      pz      :     0.022207  p :     0.062231
      px      :     0.027271
      py      :     0.012752
 38 H s       :     0.775100  s :     0.775100
      pz      :     0.011024  p :     0.066561
      px      :     0.032616
      py      :     0.022921
 39 H s       :     0.775494  s :     0.775494
      pz      :     0.021873  p :     0.063683
      px      :     0.011387
      py      :     0.030423
 40 H s       :     0.788134  s :     0.788134
      pz      :     0.013823  p :     0.060784
      px      :     0.010758
      py      :     0.036203
 41 H s       :     0.778148  s :     0.778148
      pz      :     0.011655  p :     0.060916
      px      :     0.010929
      py      :     0.038332
 42 P s       :     4.591625  s :     4.591625
      pz      :     2.667392  p :     8.062148
      px      :     2.719403
      py      :     2.675352
      dz2     :     0.277537  d :     1.581586
      dxz     :     0.330723
      dyz     :     0.282899
      dx2y2   :     0.344706
      dxy     :     0.345720
 43 O s       :     3.581645  s :     3.581645
      pz      :     1.613114  p :     4.794607
      px      :     1.573126
      py      :     1.608367
      dz2     :     0.006783  d :     0.049024
      dxz     :     0.009874
      dyz     :     0.001685
      dx2y2   :     0.015971
      dxy     :     0.014711
 44 O s       :     3.387524  s :     3.387524
      pz      :     1.438647  p :     4.642754
      px      :     1.604485
      py      :     1.599623
      dz2     :     0.020998  d :     0.072963
      dxz     :     0.018226
      dyz     :     0.014599
      dx2y2   :     0.008521
      dxy     :     0.010619
 45 O s       :     3.388515  s :     3.388515
      pz      :     1.512960  p :     4.642148
      px      :     1.596838
      py      :     1.532349
      dz2     :     0.018118  d :     0.073453
      dxz     :     0.012962
      dyz     :     0.011890
      dx2y2   :     0.010922
      dxy     :     0.019560
 46 C s       :     2.825868  s :     2.825868
      pz      :     0.854808  p :     2.919168
      px      :     1.098910
      py      :     0.965450
      dz2     :     0.108806  d :     0.469120
      dxz     :     0.069234
      dyz     :     0.118879
      dx2y2   :     0.068690
      dxy     :     0.103511
 47 C s       :     2.825399  s :     2.825399
      pz      :     0.947316  p :     2.918702
      px      :     0.974759
      py      :     0.996627
      dz2     :     0.086499  d :     0.465884
      dxz     :     0.116709
      dyz     :     0.097782
      dx2y2   :     0.059965
      dxy     :     0.104930
 48 C s       :     2.839226  s :     2.839226
      pz      :     1.079643  p :     3.199353
      px      :     1.049789
      py      :     1.069921
      dz2     :     0.036253  d :     0.234354
      dxz     :     0.026677
      dyz     :     0.054556
      dx2y2   :     0.047785
      dxy     :     0.069083
 49 H s       :     0.814755  s :     0.814755
      pz      :     0.027819  p :     0.059961
      px      :     0.013222
      py      :     0.018921
 50 H s       :     0.815015  s :     0.815015
      pz      :     0.008676  p :     0.060201
      px      :     0.028242
      py      :     0.023283
 51 H s       :     0.812244  s :     0.812244
      pz      :     0.013636  p :     0.059317
      px      :     0.018716
      py      :     0.026966
 52 C s       :     2.839636  s :     2.839636
      pz      :     1.056303  p :     3.201049
      px      :     1.075742
      py      :     1.069004
      dz2     :     0.036427  d :     0.234286
      dxz     :     0.055998
      dyz     :     0.061615
      dx2y2   :     0.018439
      dxy     :     0.061807
 53 H s       :     0.814612  s :     0.814612
      pz      :     0.016321  p :     0.060555
      px      :     0.028825
      py      :     0.015408
 54 H s       :     0.821439  s :     0.821439
      pz      :     0.012751  p :     0.060768
      px      :     0.025169
      py      :     0.022848
 55 H s       :     0.811640  s :     0.811640
      pz      :     0.028181  p :     0.060538
      px      :     0.011713
      py      :     0.020645
 56 H s       :     0.821276  s :     0.821276
      pz      :     0.028386  p :     0.060750
      px      :     0.012195
      py      :     0.020168
 57 H s       :     0.821131  s :     0.821131
      pz      :     0.017853  p :     0.060744
      px      :     0.027418
      py      :     0.015473
 58 H s       :     0.822542  s :     0.822542
      pz      :     0.015024  p :     0.060953
      px      :     0.020044
      py      :     0.025886
 59 H s       :     0.811543  s :     0.811543
      pz      :     0.021775  p :     0.060566
      px      :     0.019849
      py      :     0.018942


                      *****************************
                      * MAYER POPULATION ANALYSIS *
                      *****************************

  NA   - Mulliken gross atomic population
  ZA   - Total nuclear charge
  QA   - Mulliken gross atomic charge
  VA   - Mayer's total valence
  BVA  - Mayer's bonded valence
  FA   - Mayer's free valence

  ATOM       NA         ZA         QA         VA         BVA        FA
  0 C      6.1147     6.0000    -0.1147     3.9067     3.9067     0.0000
  1 C      6.1662     6.0000    -0.1662     3.9559     3.9559     0.0000
  2 C      6.2314     6.0000    -0.2314     3.9171     3.9171    -0.0000
  3 H      0.8961     1.0000     0.1039     0.9668     0.9668     0.0000
  4 H      0.8805     1.0000     0.1195     0.9586     0.9586     0.0000
  5 C      5.7628     6.0000     0.2372     3.6903     3.6903    -0.0000
  6 H      0.8718     1.0000     0.1282     0.9527     0.9527    -0.0000
  7 H      0.8869     1.0000     0.1131     0.9547     0.9547     0.0000
  8 C      5.9930     6.0000     0.0070     4.0932     4.0932     0.0000
  9 N      7.1373     7.0000    -0.1373     3.3445     3.3445     0.0000
 10 H      0.8892     1.0000     0.1108     0.9527     0.9527    -0.0000
 11 H      0.8666     1.0000     0.1334     0.9498     0.9498     0.0000
 12 C      6.1161     6.0000    -0.1161     3.9031     3.9031    -0.0000
 13 C      6.1537     6.0000    -0.1537     3.9528     3.9528     0.0000
 14 H      0.8891     1.0000     0.1109     0.9548     0.9548    -0.0000
 15 H      0.8645     1.0000     0.1355     0.9491     0.9491    -0.0000
 16 C      6.2706     6.0000    -0.2706     3.9531     3.9531    -0.0000
 17 H      0.8807     1.0000     0.1193     0.9589     0.9589     0.0000
 18 H      0.8959     1.0000     0.1041     0.9661     0.9661    -0.0000
 19 C      5.9014     6.0000     0.0986     3.6616     3.6616     0.0000
 20 H      0.8847     1.0000     0.1153     0.9553     0.9553     0.0000
 21 H      0.8728     1.0000     0.1272     0.9565     0.9565    -0.0000
 22 C      6.5458     6.0000    -0.5458     3.8388     3.8388    -0.0000
 23 C      5.9130     6.0000     0.0870     3.9104     3.9104    -0.0000
 24 C      5.5447     6.0000     0.4553     3.5420     3.5420     0.0000
 25 O      8.3724     8.0000    -0.3724     2.1288     2.1288    -0.0000
 26 C      5.5687     6.0000     0.4313     4.2291     4.2291    -0.0000
 27 C      6.3210     6.0000    -0.3210     3.8003     3.8003    -0.0000
 28 C      5.8618     6.0000     0.1382     3.4904     3.4904     0.0000
 29 O      8.5657     8.0000    -0.5657     2.0105     2.0105    -0.0000
 30 C      5.7148     6.0000     0.2852     3.7426     3.7426    -0.0000
 31 C      6.1767     6.0000    -0.1767     4.0196     4.0196     0.0000
 32 C      6.0836     6.0000    -0.0836     4.0279     4.0279    -0.0000
 33 N      7.2401     7.0000    -0.2401     3.3554     3.3554     0.0000
 34 C      5.9436     6.0000     0.0564     3.9857     3.9857    -0.0000
 35 C      6.0101     6.0000    -0.0101     3.8399     3.8399    -0.0000
 36 H      0.8196     1.0000     0.1804     0.9897     0.9897    -0.0000
 37 H      0.8498     1.0000     0.1502     0.9640     0.9640     0.0000
 38 H      0.8190     1.0000     0.1810     0.9814     0.9814     0.0000
 39 H      0.8488     1.0000     0.1512     0.9804     0.9804     0.0000
 40 H      0.9058     1.0000     0.0942     0.9896     0.9896    -0.0000
 41 H      0.8461     1.0000     0.1539     0.9703     0.9703     0.0000
 42 P     13.4607    15.0000     1.5393     4.9510     4.9510     0.0000
 43 O      8.7716     8.0000    -0.7716     1.8934     1.8934     0.0000
 44 O      8.5114     8.0000    -0.5114     1.9718     1.9718    -0.0000
 45 O      8.5161     8.0000    -0.5161     1.9707     1.9707    -0.0000
 46 C      6.0236     6.0000    -0.0236     3.8208     3.8208    -0.0000
 47 C      6.0076     6.0000    -0.0076     3.8154     3.8154     0.0000
 48 C      6.3567     6.0000    -0.3567     3.9168     3.9168    -0.0000
 49 H      0.8543     1.0000     0.1457     0.9438     0.9438    -0.0000
 50 H      0.8573     1.0000     0.1427     0.9521     0.9521     0.0000
 51 H      0.8559     1.0000     0.1441     0.9492     0.9492     0.0000
 52 C      6.3527     6.0000    -0.3527     3.8983     3.8983    -0.0000
 53 H      0.8613     1.0000     0.1387     0.9567     0.9567     0.0000
 54 H      0.8656     1.0000     0.1344     0.9575     0.9575    -0.0000
 55 H      0.8615     1.0000     0.1385     0.9590     0.9590    -0.0000
 56 H      0.8690     1.0000     0.1310     0.9606     0.9606     0.0000
 57 H      0.8705     1.0000     0.1295     0.9620     0.9620    -0.0000
 58 H      0.8677     1.0000     0.1323     0.9649     0.9649     0.0000
 59 H      0.8595     1.0000     0.1405     0.9584     0.9584    -0.0000

  Mayer bond orders larger than 0.100000
B(  0-C ,  1-C ) :   1.0041 B(  0-C ,  9-N ) :   0.9443 B(  0-C , 10-H ) :   0.9476 
B(  0-C , 11-H ) :   0.9509 B(  1-C ,  2-C ) :   1.0217 B(  1-C ,  3-H ) :   0.9683 
B(  1-C ,  4-H ) :   0.9601 B(  2-C ,  5-C ) :   0.9952 B(  2-C ,  6-H ) :   0.9555 
B(  2-C ,  7-H ) :   0.9460 B(  5-C ,  8-C ) :   1.2310 B(  5-C , 22-C ) :   1.4074 
B(  8-C ,  9-N ) :   1.3775 B(  8-C , 19-C ) :   1.2429 B(  9-N , 12-C ) :   0.9441 
B( 12-C , 13-C ) :   0.9978 B( 12-C , 14-H ) :   0.9481 B( 12-C , 15-H ) :   0.9525 
B( 13-C , 16-C ) :   1.0366 B( 13-C , 17-H ) :   0.9626 B( 13-C , 18-H ) :   0.9665 
B( 16-C , 19-C ) :   1.0398 B( 16-C , 20-H ) :   0.9533 B( 16-C , 21-H ) :   0.9463 
B( 19-C , 23-C ) :   1.3438 B( 22-C , 24-C ) :   1.0869 B( 22-C , 40-H ) :   1.0487 
B( 23-C , 24-C ) :   1.3445 B( 23-C , 25-O ) :   1.0243 B( 24-C , 27-C ) :   1.1643 
B( 25-O , 26-C ) :   1.1035 B( 26-C , 28-C ) :   1.1285 B( 26-C , 29-O ) :   1.9033 
B( 27-C , 28-C ) :   1.3886 B( 27-C , 41-H ) :   0.9535 B( 28-C , 30-C ) :   0.9600 
B( 30-C , 31-C ) :   1.3324 B( 30-C , 32-C ) :   1.4044 B( 31-C , 35-C ) :   1.4130 
B( 31-C , 39-H ) :   0.9556 B( 32-C , 33-N ) :   1.3038 B( 32-C , 36-H ) :   0.9346 
B( 33-N , 34-C ) :   1.3053 B( 33-N , 42-P ) :   0.7277 B( 34-C , 35-C ) :   1.4067 
B( 34-C , 38-H ) :   0.9396 B( 35-C , 37-H ) :   0.9603 B( 42-P , 43-O ) :   1.7432 
B( 42-P , 44-O ) :   1.1153 B( 42-P , 45-O ) :   1.1152 B( 44-O , 47-C ) :   0.8277 
B( 45-O , 46-C ) :   0.8340 B( 46-C , 48-C ) :   1.0206 B( 46-C , 49-H ) :   0.9573 
B( 46-C , 50-H ) :   0.9571 B( 47-C , 51-H ) :   0.9547 B( 47-C , 52-C ) :   1.0166 
B( 47-C , 53-H ) :   0.9579 B( 48-C , 54-H ) :   0.9719 B( 48-C , 55-H ) :   0.9602 
B( 48-C , 56-H ) :   0.9707 B( 52-C , 57-H ) :   0.9699 B( 52-C , 58-H ) :   0.9701 
B( 52-C , 59-H ) :   0.9602 

-------
TIMINGS
-------

Total SCF time: 0 days 0 hours 26 min 34 sec 

Total time                  ....    1594.672 sec
Sum of individual times     ....    1577.622 sec  ( 98.9%)

Fock matrix formation       ....    1537.611 sec  ( 96.4%)
  Split-RI-J                ....     103.378 sec  (  6.7% of F)
  Chain of spheres X        ....    1235.114 sec  ( 80.3% of F)
  XC integration            ....      61.371 sec  (  4.0% of F)
    Basis function eval.    ....      19.457 sec  ( 31.7% of XC)
    Density eval.           ....      20.610 sec  ( 33.6% of XC)
    XC-Functional eval.     ....       2.030 sec  (  3.3% of XC)
    XC-Potential eval.      ....      11.277 sec  ( 18.4% of XC)
Diagonalization             ....       0.528 sec  (  0.0%)
Density matrix formation    ....       0.231 sec  (  0.0%)
Population analysis         ....       0.760 sec  (  0.0%)
Initial guess               ....       0.533 sec  (  0.0%)
Orbital Transformation      ....       0.000 sec  (  0.0%)
Orbital Orthonormalization  ....       0.474 sec  (  0.0%)
DIIS solution               ....       0.186 sec  (  0.0%)
SOSCF solution              ....       2.275 sec  (  0.1%)
Grid generation             ....      35.500 sec  (  2.2%)

Maximum memory used throughout the entire SCF-calculation: 556.8 MB

-------------------------   --------------------
FINAL SINGLE POINT ENERGY     -1758.924133207799
-------------------------   --------------------

                                *** OPTIMIZATION RUN DONE ***

                            ***************************************
                            *     ORCA property calculations      *
                            ***************************************

                                    ---------------------
                                    Active property flags
                                    ---------------------
   (+) Dipole Moment


------------------------------------------------------------------------------
                       ORCA ELECTRIC PROPERTIES CALCULATION
------------------------------------------------------------------------------

Dipole Moment Calculation                       ... on
Quadrupole Moment Calculation                   ... off
Polarizability Calculation                      ... off
GBWName                                         ... NMU-DCP_opt.gbw
Electron density                                ... NMU-DCP_opt.scfp
The origin for moment calculation is the CENTER OF MASS  = ( 0.149745, -7.636747 -0.849246)

-------------
DIPOLE MOMENT
-------------
                                X             Y             Z
Electronic contribution:     24.20999      -0.03892       6.27774
Nuclear contribution   :    -24.56903      -2.26184      -6.14708
                        -----------------------------------------
Total Dipole Moment    :     -0.35904      -2.30076       0.13066
                        -----------------------------------------
Magnitude (a.u.)       :      2.33227
Magnitude (Debye)      :      5.92816



--------------------
Rotational spectrum 
--------------------
 
Rotational constants in cm-1:     0.007928     0.001848     0.001685 
Rotational constants in MHz :   237.685736    55.389780    50.516963 

 Dipole components along the rotational axes: 
x,y,z [a.u.] :    -1.049020    -1.902012     0.849353 
x,y,z [Debye]:    -2.666397    -4.834529     2.158885 

 

Timings for individual modules:

Sum of individual times         ...   182518.053 sec (=3041.968 min)
GTO integral calculation        ...     1426.210 sec (=  23.770 min)   0.8 %
SCF iterations                  ...   144685.636 sec (=2411.427 min)  79.3 %
SCF Gradient evaluation         ...    36235.305 sec (= 603.922 min)  19.9 %
Geometry relaxation             ...      170.902 sec (=   2.848 min)   0.1 %
                             ****ORCA TERMINATED NORMALLY****
TOTAL RUN TIME: 2 days 2 hours 50 minutes 32 seconds 459 msec
