
                                 *****************
                                 * O   R   C   A *
                                 *****************

                                            #,                                       
                                            ###                                      
                                            ####                                     
                                            #####                                    
                                            ######                                   
                                           ########,                                 
                                     ,,################,,,,,                         
                               ,,#################################,,                 
                          ,,##########################################,,             
                       ,#########################################, ''#####,          
                    ,#############################################,,   '####,        
                  ,##################################################,,,,####,       
                ,###########''''           ''''###############################       
              ,#####''   ,,,,##########,,,,          '''####'''          '####       
            ,##' ,,,,###########################,,,                        '##       
           ' ,,###''''                  '''############,,,                           
         ,,##''                                '''############,,,,        ,,,,,,###''
      ,#''                                            '''#######################'''  
     '                                                          ''''####''''         
             ,#######,   #######,   ,#######,      ##                                
            ,#'     '#,  ##    ##  ,#'     '#,    #''#        ,####,   ,####,        
            ##       ##  ##   ,#'  ##            #'  '#       #'       #'  '#        
            ##       ##  #######   ##           ,######,      #####,   #    #        
            '#,     ,#'  ##    ##  '#,     ,#' ,#      #,     #,   #   #,  ,#        
             '#######'   ##     ##  '#######'  #'      '#     '####' # '####'        



                #########################################################
                #                        -***-                          #
                #          Department of theory and spectroscopy        #
                #                                                       #
                #                      Frank Neese                      #
                #                                                       #
                #     Directorship, Architecture, Infrastructure        #
                #                    SHARK, DRIVERS                     #
                #        Core code/Algorithms in most modules           #
                #                                                       #
                #        Max Planck Institute fuer Kohlenforschung      #
                #                Kaiser Wilhelm Platz 1                 #
                #                 D-45470 Muelheim/Ruhr                 #
                #                      Germany                          #
                #                                                       #
                #                  All rights reserved                  #
                #                        -***-                          #
                #########################################################


                         Program Version 6.0.1  -  RELEASE   -


 With contributions from (in alphabetic order):
[Max-Planck-Institut fuer Kohlenforschung]                               
  Daniel Aravena         : Magnetic Suceptibility                        
  Michael Atanasov       : Ab Initio Ligand Field Theory (pilot matlab implementation)
  Alexander A. Auer      : GIAO ZORA, VPT2 properties, NMR spectrum      
  Ute Becker             : All parallelization in ORCA, NUMFREQ, NUMCALC 
  Giovanni Bistoni       : ED, misc. LED, open-shell LED, HFLD           
  Martin Brehm           : Molecular dynamics                            
  Dmytro Bykov           : pre 5.0 version of the SCF Hessian            
  Marcos Casanova-Páez   : Triplet and SCS-CIS(D). UHF-(DLPNO)-IP/EA/STEOM-CCSD. UHF-CVS-IP/STEOM-CCSD   
  Vijay G. Chilkuri      : MRCI spin determinant printing, contributions to CSF-ICE 
  Pauline Colinet        : FMM embedding                                 
  Dipayan Datta          : RHF DLPNO-CCSD density                        
  Achintya Kumar Dutta   : EOM-CC, STEOM-CC                              
  Nicolas Foglia         : Exact transition moments, OPA infrastructure, MCD improvements    
  Dmitry Ganyushin       : Spin-Orbit,Spin-Spin,Magnetic field MRCI      
  Miquel Garcia-Rates    : C-PCM and meta-GGA Hessian, CCSD/C-PCM, Gaussian charge scheme 
  Tiago L. C. Gouveia    : GS-ROHF, GS-ROCIS                             
  Yang Guo               : DLPNO-NEVPT2, F12-NEVPT2, CIM, IAO-localization        
  Andreas Hansen         : Spin unrestricted coupled pair/coupled cluster methods 
  Ingolf Harden          : AUTO-CI MPn and infrastructure                
  Benjamin Helmich-Paris : MC-RPA, TRAH-(SCF,CASSCF), AVAS, COSX integrals, SCF dyn. polar. 
  Lee Huntington         : MR-EOM, pCC                                   
  Robert Izsak           : Overlap fitted RIJCOSX, COSX-SCS-MP3, EOM     
  Riya Kayal             : Wick's Theorem for AUTO-CI, AUTO-CI UHF-CCSDT 
  Emily Kempfer          : AUTO-CI, RHF CISDT and CCSDT                  
  Christian Kollmar      : KDIIS, OOCD, Brueckner-CCSD(T), CCSD density, CASPT2, CASPT2-K, improved NEVPT2 
  Axel Koslowski         : Symmetry handling                             
  Simone Kossmann        : meta-GGA functionals, TD-DFT gradient, OOMP2, (MP2 Hessian; deprecated post 5.0) 
  Lucas Lang             : DCDCAS                                        
  Marvin Lechner         : AUTO-CI (C++ implementation), FIC-MRCC        
  Spencer Leger          : CASSCF response                               
  Dagmar Lenk            : GEPOL surface, SMD, ORCA-2-JSON               
  Dimitrios Liakos       : Extrapolation schemes; Compound Job, initial MDCI parallelization 
  Dimitrios Manganas     : Further ROCIS development; embedding schemes. LFT, Crystal Embedding 
  Dimitrios Pantazis     : SARC Basis sets                               
  Anastasios Papadopoulos: AUTO-CI, single reference methods and gradients 
  Taras Petrenko         : pre 6.0 DFT Hessian and TD-DFT gradient, (ASA, deprecated), ECA, 1-Electron XAS/XES, NRVS 
  Peter Pinski           : DLPNO-MP2, DLPNO-MP2 Gradient                 
  Christoph Reimann      : Effective Core Potentials                     
  Marius Retegan         : Local ZFS, SOC                                
  Christoph Riplinger    : Optimizer, TS searches, QM/MM, DLPNO-CCSD(T), (RO)-DLPNO pert. Triples 
  Michael Roemelt        : Original ROCIS implementation                 
  Masaaki Saitow         : Open-shell DLPNO-CCSD energy and density      
  Barbara Sandhoefer     : DKH picture change effects                    
  Kantharuban Sivalingam : CASSCF convergence/infrastructure, NEVPT2 and variants, FIC-MRCI 
  Bernardo de Souza      : ESD, SOC TD-DFT                               
  Georgi L. Stoychev     : AutoAux, RI-MP2 NMR, DLPNO-MP2 response, X2C  
  Van Anh Tran           : RI-MP2 g-tensors                              
  Willem Van den Heuvel  : Paramagnetic NMR                              
  Zikuan Wang            : NOTCH, Electric field optimization            
  Frank Wennmohs         : Technical directorship and infrastructure     
  Hang Xu                : AUTO-CI-Response properties                   
                                                                         
[FACCTs GmbH]                                                            
  Markus Bursch, Miquel Garcia-Rates, Christoph Riplinger, Bernardo de Souza, Georgi L. Stoychev 
                                                                 
  APM, Basis sets (HGBS, AHGBS, def-TZVP (Ac-Lr), def2-XVPD (La-Lu)), CI-OPT, improved COSX, DLPNO-Multilevel,           
  DOCKER, DRACO, updates on ESD, GOAT, IRC, LR-CPCM, MBIS, meta-GGA TD-DFT gradient, ML-optimized integration grids, 
  MM, NACMEs, nearIR, NEB, NEB-TS, NL-DFT gradient (VV10), 2- and 3-layer-ONIOM, interface openCOSMO-RS, QMMM,   
  Crystal-QMMM, SF, symmetry and pop. for TD-DFT, r2SCAN hybrids, SOLVATOR                                   
                                                                         
[Other institutions]                                                     
  V. Asgeirsson          : NEB                                           
  Christoph Bannwarth    : sTDA-DFT, sTD-DFT, PBEh-3c, B97-3c, D3        
  Sebastian Ehlert       : rSCAN, r2SCAN, r2SCAN-3c, D4, dhf basis sets  
  Marvin Friede          : D4 for Fr, Ra, Ac-Lr                          
  Lars Goerigk           : TD-DFT with DH, B97 family of functionals     
  Stefan Grimme          : VdW corrections, initial TS optimization, DFT functionals, gCP, sTDA/sTD-DF 
  Waldemar Hujo          : DFT-NL                                        
  H. Jonsson             : NEB                                           
  Holger Kruse           : gCP                                           
  Marcel Mueller         : wB97X-3c, vDZP basis set                      
  Hagen Neugebauer       : wr2SCAN                                       
  Tobias Risthaus        : range-separated hybrid DFT                    
  Lukas Wittmann         : regularized MP2, r2SCAN double-hybrids, wr2SCAN        
                                                                         
We gratefully acknowledge several colleagues who have allowed us to      
interface, adapt or use parts of their codes:                            
  Ed Valeev, F. Pavosevic, A. Kumar             : LibInt (2-el integral package), F12 methods 
  Garnet Chan, S. Sharma, J. Yang, R. Olivares  : DMRG                   
  Ulf Ekstrom                                   : XCFun DFT Library      
  Mihaly Kallay                                 : mrcc  (arbitrary order and MRCC methods)
  Frank Weinhold                                : gennbo (NPA and NBO analysis)           
  Simon Mueller                                 : openCOSMO-RS                            
  Christopher J. Cramer and Donald G. Truhlar   : smd solvation model                     
  S Lehtola, MJT Oliveira, MAL Marques          : LibXC Library                           
  Liviu Ungur et al                             : ANISO software                          


 Your calculation uses the libint2 library for the computation of 2-el integrals
 For citations please refer to: http://libint.valeyev.net

 Your ORCA version has been built with support for libXC version: 6.2.2
 For citations please refer to: https://libxc.gitlab.io

 This ORCA versions uses:
   CBLAS   interface :  Fast vector & matrix operations
   LAPACKE interface :  Fast linear algebra routines
   SCALAPACK package :  Parallel linear algebra routines
   Shared memory     :  Shared parallel matrices
   BLAS/LAPACK       :  OpenBLAS 0.3.27  USE64BITINT DYNAMIC_ARCH NO_AFFINITY Cooperlake SINGLE_THREADED
        Core in use  :  Cooperlake
   Copyright (c) 2011-2014, The OpenBLAS Project


XCFun DFT library Copyright 2009-2010 Ulf Ekstrom and contributors.
See http://admol.org/xcfun for more information.
This is free software; see the source code for copying conditions.
There is ABSOLUTELY NO WARRANTY; not even for MERCHANTABILITY or FITNESS FOR A PARTICULAR PURPOSE.
For details see the documentation.
Scientific users of this library should cite U. Ekstrom, L. Visscher, R. Bast, A. J. Thorvaldsen and K. Ruud;
J.Chem.Theor.Comp. 2010, DOI: 10.1021/ct100117s
XCFun Version 0.99 

Warning: RI is on but no J-basis has been assigned. Assigning Def2/J (nothing to worry about!)
================================================================================

----- Orbital basis set information -----
Your calculation utilizes the basis: def2-TZVP(-f)
   F. Weigend and R. Ahlrichs, Phys. Chem. Chem. Phys. 7, 3297 (2005).

----- AuxJ basis set information -----
Your calculation utilizes the auxiliary basis: def2/J
   F. Weigend, Phys. Chem. Chem. Phys. 8, 1057 (2006).

================================================================================
                                        WARNINGS
                       Please study these warnings very carefully!
================================================================================

INFO   : Checking CIS options ...

WARNING: (CIS/TDDFT): Analytic excited state gradients requested
  ===> : turning on equilibrium dielectric conditions.

WARNING: Geometry Optimization
  ===> : Switching off AutoStart
         For restart on a previous wavefunction, please use MOREAD

WARNING: CIS/ROCIS methods need fully converged wavefunctions
  ===> : Setting SCFConvForced true
         You can overwrite this default with %scf ConvForced false 


================================================================================
                                       INPUT FILE
================================================================================
NAME = hbq-dcp-es.inp
|  1> ! CAM-B3LYP VERYTIGHTOPT Def2-TZVP(-f) TightSCF CPCM(Water)
|  2> %tddft
|  3>     NRoots 3
|  4>     IRoot 1
|  5> end 
|  6> 
|  7> * xyz 1 1 
|  8>   C          -4.78986328346326      0.28386270329483      0.47222989332789
|  9>   C          -5.37819185787362     -0.56573934484806      1.38796735698578
| 10>   C          -4.58214196414587     -1.14063311628925      2.36240935739827
| 11>   C          -3.43015992199052      0.60877653487136      0.55344612937824
| 12>   C          -2.63047021355923      0.17595949616564      1.63062390450217
| 13>   O          -2.96458211568902      1.34094629349426     -0.48036074239669
| 14>   C          -3.21643602662175     -0.80925561717772      2.47860753054076
| 15>   C          -2.41893461014539     -1.46449426417305      3.42796031837986
| 16>   C          -1.07057598937220     -1.20099743695280      3.51052417565479
| 17>   C          -1.31484058647100      0.59817117023981      1.90295389713305
| 18>   C          -0.47690583871621     -0.18421270209751      2.73574353711530
| 19>   N          -0.77668015664350      1.78605689559031      1.37165059993380
| 20>   C           0.61232521603336      1.83998778550734      1.21436538773208
| 21>   C           1.43770764392566      0.99244831761827      1.87647429195907
| 22>   C           0.90609252466288      0.03500308901832      2.74693577085709
| 23>   C          -1.89631126959551      0.88407063811438     -1.25316474108897
| 24>   O          -1.32966942895032     -0.15265699833358     -0.99797478565755
| 25>   N          -1.64129117672614      1.72017772189777     -2.25696705459018
| 26>   C          -2.45328901182775      2.87407657806822     -2.61009375452647
| 27>   C          -0.60259556575659      1.36499868631121     -3.21001801205289
| 28>   H          -1.04788135515347      1.00470097772752     -4.13930200394956
| 29>   H           0.03177947293891      0.59211995915422     -2.79156358416202
| 30>   H          -0.00548928711786      2.24965546695152     -3.42615424320354
| 31>   H          -1.79459952725926      3.72030710271530     -2.79948838672472
| 32>   H          -3.13303450548067      3.13094311113374     -1.80905806814784
| 33>   H          -3.02093025514973      2.66127543737821     -3.51772129948500
| 34>   H          -4.99694011722014     -1.85716713724904      3.05851244394109
| 35>   H          -5.35080236018166      0.68948728375332     -0.35849183926217
| 36>   H          -6.42713006650561     -0.81122678634776      1.31339377179043
| 37>   H          -2.86597234078017     -2.21825738291765      4.06196817712571
| 38>   H          -0.44649386938168     -1.76760253023126      4.18870893091182
| 39>   H           0.97498571963253      2.62974668677530      0.57400435330902
| 40>   H           2.50456877040632      1.09151169414915      1.73874720133307
| 41>   H           1.53986404074907     -0.56781505666680      3.38000458887604
| 42>   P          -1.56437461105913      3.30076594980709      1.56140776887573
| 43>   O          -2.97177970748687      3.14152901742824      1.92689927611438
| 44>   O          -1.18622400518436      3.94787679148636      0.19291493137607
| 45>   O          -0.69737368076878      4.12435449809155      2.58199319387071
| 46>   C          -1.30030560275996      5.37958863567972     -0.06241178727833
| 47>   C          -1.04202695493746      4.26806145844542      3.98948310814796
| 48>   C          -0.07853063965079      5.82799104979909     -0.81598130917795
| 49>   H          -1.39946099469219      5.90443175381759      0.88575439109676
| 50>   H          -2.21027081074549      5.51633720952075     -0.64232853788095
| 51>   H           0.82027728456780      5.68585379906667     -0.21668327101141
| 52>   H          -0.17321985938610      6.88803668537220     -1.05311139388792
| 53>   H           0.02571954602654      5.27398339693675     -1.74862069856460
| 54>   C          -0.16227651218406      3.39353114192846      4.84263064554289
| 55>   H          -2.09642978995984      4.03160735113944      4.11384447889364
| 56>   H          -0.88971401284500      5.32241883689481      4.20738533744901
| 57>   H           0.88977037530636      3.63030963982768      4.68666399924454
| 58>   H          -0.32332093235608      2.33821701484018      4.62354475138643
| 59>   H          -0.40187978988721      3.56594052932834      5.89259200776293
| 60> *
| 61> 
| 62> 
| 63>                          ****END OF INPUT****
================================================================================

                       *****************************
                       * Geometry Optimization Run *
                       *****************************

Geometry optimization settings:
Update method            Update   .... BFGS
Choice of coordinates    CoordSys .... (2022) Redundant Internals
Initial Hessian          InHess   .... Almloef's Model
Max. no of cycles        MaxIter  .... 156

Convergence Tolerances:
Energy Change            TolE     ....  2.0000e-07 Eh
Max. Gradient            TolMAXG  ....  3.0000e-05 Eh/bohr
RMS Gradient             TolRMSG  ....  8.0000e-06 Eh/bohr
Max. Displacement        TolMAXD  ....  2.0000e-04 bohr
RMS Displacement         TolRMSD  ....  1.0000e-04 bohr
Strict Convergence                .... False

------------------------------------------------------------------------------
                        ORCA OPTIMIZATION COORDINATE SETUP
------------------------------------------------------------------------------

The optimization will be done in redundant internal coordinates (2022)
Making redundant internal coordinates   ...  (2022 redundants) done
Evaluating the initial hessian          ...  (Almloef) done
Evaluating the coordinates              ...  done
Calculating the B-matrix                .... done
Calculating the G-matrix                .... done
Diagonalizing the G-matrix              .... done
Small eigenvalue found = 1.525e-03
Small eigenvalue found = 4.810e-03
Small eigenvalue found = 5.885e-03
Small eigenvalue found = 6.694e-03
Small eigenvalue found = 8.059e-03
Small eigenvalue found = 1.266e-02
Small eigenvalue found = 1.969e-02
Small eigenvalue found = 2.096e-02
Small eigenvalue found = 2.377e-02
The first mode is                       ....  109
The number of degrees of freedom        ....  150

    -----------------------------------------------------------------
                    Redundant Internal Coordinates


    -----------------------------------------------------------------
         Definition                    Initial Value    Approx d2E/dq
    -----------------------------------------------------------------
      1. B(C   1,C   0)                  1.3808         0.646342   
      2. B(C   2,C   1)                  1.3834         0.640181   
      3. B(C   3,C   0)                  1.4003         0.601504   
      4. B(C   4,C   3)                  1.4097         0.581259   
      5. B(O   5,C   3)                  1.3497         0.648977   
      6. B(C   6,C   4)                  1.4259         0.547676   
      7. B(C   6,C   2)                  1.4101         0.580260   
      8. B(C   7,C   6)                  1.4024         0.597059   
      9. B(C   8,C   7)                  1.3763         0.656944   
     10. B(C   9,C   4)                  1.4083         0.584175   
     11. B(C  10,C   9)                  1.4170         0.565865   
     12. B(C  10,C   8)                  1.4095         0.581687   
     13. B(N  11,C   9)                  1.4082         0.523443   
     14. B(C  12,N  11)                  1.3989         0.541553   
     15. B(C  13,C  12)                  1.3557         0.708656   
     16. B(C  14,C  13)                  1.3989         0.604621   
     17. B(C  14,C  10)                  1.4003         0.601577   
     18. B(C  15,O   5)                  1.3954         0.548589   
     19. B(O  16,C  15)                  1.2087         1.089163   
     20. B(N  17,C  15)                  1.3311         0.694873   
     21. B(C  18,N  17)                  1.4545         0.441567   
     22. B(C  19,N  17)                  1.4537         0.442782   
     23. B(H  20,C  19)                  1.0916         0.357946   
     24. B(H  21,C  19)                  1.0839         0.368237   
     25. B(H  22,C  19)                  1.0890         0.361457   
     26. B(H  23,C  18)                  1.0890         0.361470   
     27. B(H  24,C  18)                  1.0815         0.371490   
     28. B(H  25,C  18)                  1.0915         0.358172   
     29. B(H  26,C   2)                  1.0817         0.371272   
     30. B(H  27,C   0)                  1.0813         0.371749   
     31. B(H  28,C   1)                  1.0799         0.373768   
     32. B(H  29,C   7)                  1.0817         0.371317   
     33. B(H  30,C   8)                  1.0819         0.371010   
     34. B(H  31,C  12)                  1.0795         0.374272   
     35. B(H  32,C  13)                  1.0803         0.373210   
     36. B(H  33,C  14)                  1.0797         0.373936   
     37. B(P  34,N  11)                  1.7178         0.564152   
     38. B(O  35,P  34)                  1.4628         1.439631   
     39. B(O  36,P  34)                  1.5603         1.006175   
     40. B(O  37,P  34)                  1.5721         0.963379   
     41. B(C  38,O  36)                  1.4588         0.434670   
     42. B(C  39,O  37)                  1.4562         0.438820   
     43. B(C  40,C  38)                  1.5039         0.411192   
     44. B(H  41,C  38)                  1.0883         0.362408   
     45. B(H  42,C  38)                  1.0877         0.363187   
     46. B(H  43,C  40)                  1.0896         0.360636   
     47. B(H  44,C  40)                  1.0904         0.359619   
     48. B(H  45,H  23)                  2.6138         0.000256   
     49. B(H  45,C  40)                  1.0898         0.360398   
     50. B(C  46,C  39)                  1.5055         0.408710   
     51. B(H  47,C  39)                  1.0877         0.363125   
     52. B(H  48,C  39)                  1.0874         0.363610   
     53. B(H  49,C  46)                  1.0896         0.360651   
     54. B(H  50,C  46)                  1.0898         0.360390   
     55. B(H  51,C  46)                  1.0907         0.359219   
     56. A(C   1,C   0,C   3)          121.1998         0.434951   
     57. A(C   1,C   0,H  27)          121.2841         0.357333   
     58. A(C   3,C   0,H  27)          117.4654         0.353002   
     59. A(C   0,C   1,C   2)          118.5338         0.439866   
     60. A(C   0,C   1,H  28)          120.5284         0.357662   
     61. A(C   2,C   1,H  28)          120.8727         0.357080   
     62. A(C   1,C   2,H  26)          120.5255         0.356674   
     63. A(C   6,C   2,H  26)          118.2964         0.350786   
     64. A(C   1,C   2,C   6)          121.1778         0.431404   
     65. A(C   4,C   3,O   5)          123.7921         0.429770   
     66. A(C   0,C   3,O   5)          114.6070         0.432421   
     67. A(C   0,C   3,C   4)          121.5947         0.426740   
     68. A(C   6,C   4,C   9)          118.4285         0.420024   
     69. A(C   3,C   4,C   9)          125.8509         0.424513   
     70. A(C   3,C   4,C   6)          115.6876         0.419649   
     71. A(C   3,O   5,C  15)          120.7092         0.422570   
     72. A(C   4,C   6,C   7)          119.4553         0.421662   
     73. A(C   2,C   6,C   7)          119.7854         0.426042   
     74. A(C   2,C   6,C   4)          120.7556         0.419521   
     75. A(C   6,C   7,H  29)          119.1681         0.352489   
     76. A(C   6,C   7,C   8)          120.5494         0.435645   
     77. A(C   8,C   7,H  29)          120.2080         0.358252   
     78. A(C  10,C   8,H  30)          118.6480         0.350889   
     79. A(C   7,C   8,H  30)          120.1630         0.358201   
     80. A(C   7,C   8,C  10)          121.1831         0.433605   
     81. A(C   4,C   9,C  10)          120.0370         0.422481   
     82. A(C  10,C   9,N  11)          117.4856         0.411621   
     83. A(C   4,C   9,N  11)          122.4770         0.413954   
     84. A(C   9,C  10,C  14)          120.1527         0.424704   
     85. A(C   8,C  10,C  14)          121.6371         0.426806   
     86. A(C   8,C  10,C   9)          118.1847         0.422159   
     87. A(C   9,N  11,P  34)          121.7969         0.436423   
     88. A(C   9,N  11,C  12)          117.0263         0.405801   
     89. A(C  12,N  11,P  34)          115.7042         0.439108   
     90. A(N  11,C  12,H  31)          115.3707         0.345072   
     91. A(N  11,C  12,C  13)          121.7012         0.431101   
     92. A(C  13,C  12,H  31)          122.8571         0.363401   
     93. A(C  12,C  13,H  32)          118.7943         0.363225   
     94. A(C  12,C  13,C  14)          120.0261         0.442648   
     95. A(C  14,C  13,H  32)          121.1574         0.353545   
     96. A(C  10,C  14,H  33)          119.8016         0.353360   
     97. A(C  10,C  14,C  13)          118.5214         0.429775   
     98. A(C  13,C  14,H  33)          121.5926         0.353662   
     99. A(O  16,C  15,N  17)          127.4571         0.484656   
    100. A(O   5,C  15,N  17)          111.0182         0.427769   
    101. A(O   5,C  15,O  16)          121.5196         0.464044   
    102. A(C  18,N  17,C  19)          115.6930         0.380255   
    103. A(C  15,N  17,C  19)          118.5434         0.411731   
    104. A(C  15,N  17,C  18)          125.0624         0.411531   
    105. A(N  17,C  18,H  25)          109.7283         0.331090   
    106. A(H  23,C  18,H  24)          108.9305         0.292442   
    107. A(H  23,C  18,H  25)          108.7514         0.290768   
    108. A(N  17,C  18,H  24)          111.0683         0.333099   
    109. A(N  17,C  18,H  23)          108.7258         0.331593   
    110. A(H  24,C  18,H  25)          109.5934         0.292020   
    111. A(H  21,C  19,H  22)          109.5708         0.292036   
    112. A(H  20,C  19,H  22)          108.8343         0.290737   
    113. A(N  17,C  19,H  22)          108.8694         0.331742   
    114. A(H  20,C  19,H  21)          109.3922         0.291588   
    115. A(N  17,C  19,H  21)          109.8334         0.332765   
    116. A(N  17,C  19,H  20)          110.3208         0.331206   
    117. A(N  11,P  34,O  36)           99.0725         0.526671   
    118. A(N  11,P  34,O  35)          111.8886         0.563636   
    119. A(O  36,P  34,O  37)          102.6180         0.583025   
    120. A(O  35,P  34,O  37)          115.1779         0.624749   
    121. A(N  11,P  34,O  37)          106.3058         0.522386   
    122. A(O  35,P  34,O  36)          119.8332         0.630046   
    123. A(P  34,O  36,C  38)          122.7929         0.468721   
    124. A(P  34,O  37,C  39)          123.2738         0.465814   
    125. A(H  41,C  38,H  42)          109.1276         0.291522   
    126. A(C  40,C  38,H  42)          112.0260         0.329950   
    127. A(O  36,C  38,H  42)          106.3880         0.330989   
    128. A(C  40,C  38,H  41)          111.5185         0.329833   
    129. A(O  36,C  38,H  41)          109.1450         0.330872   
    130. A(O  36,C  38,C  40)          108.4697         0.376766   
    131. A(C  46,C  39,H  48)          111.5822         0.329683   
    132. A(O  37,C  39,H  48)          104.8467         0.331574   
    133. A(C  46,C  39,H  47)          112.0479         0.329611   
    134. A(O  37,C  39,H  47)          108.5715         0.331501   
    135. A(O  37,C  39,C  46)          110.6156         0.376990   
    136. A(H  47,C  39,H  48)          108.8844         0.291666   
    137. A(H  44,C  40,H  45)          108.4466         0.290816   
    138. A(H  43,C  40,H  45)          108.9949         0.290945   
    139. A(C  38,C  40,H  45)          110.7917         0.329530   
    140. A(H  43,C  40,H  44)          108.5466         0.290846   
    141. A(C  38,C  40,H  44)          109.1653         0.329412   
    142. A(C  38,C  40,H  43)          110.8339         0.329566   
    143. A(H  50,C  46,H  51)          108.3093         0.290764   
    144. A(H  49,C  46,H  51)          108.3950         0.290797   
    145. A(C  39,C  46,H  51)          108.9856         0.329022   
    146. A(H  49,C  46,H  50)          108.9260         0.290946   
    147. A(C  39,C  46,H  50)          111.2373         0.329199   
    148. A(C  39,C  46,H  49)          110.9079         0.329239   
    149. D(C   2,C   1,C   0,C   3)     -2.7277         0.029064   
    150. D(H  28,C   1,C   0,H  27)     -2.4765         0.029064   
    151. D(C   2,C   1,C   0,H  27)    174.6166         0.029064   
    152. D(H  28,C   1,C   0,C   3)   -179.8208         0.029064   
    153. D(C   6,C   2,C   1,H  28)   -179.0158         0.028476   
    154. D(H  26,C   2,C   1,C   0)   -176.2653         0.028476   
    155. D(C   6,C   2,C   1,C   0)      3.9016         0.028476   
    156. D(H  26,C   2,C   1,H  28)      0.8174         0.028476   
    157. D(C   4,C   3,C   0,H  27)    177.1909         0.024949   
    158. D(O   5,C   3,C   0,C   1)    173.7580         0.024949   
    159. D(O   5,C   3,C   0,H  27)     -3.6842         0.024949   
    160. D(C   4,C   3,C   0,C   1)     -5.3669         0.024949   
    161. D(C   6,C   4,C   3,O   5)   -167.4558         0.023217   
    162. D(C   9,C   4,C   3,C   0)   -170.5450         0.023217   
    163. D(C   6,C   4,C   3,C   0)     11.5869         0.023217   
    164. D(C   9,C   4,C   3,O   5)     10.4123         0.023217   
    165. D(C  15,O   5,C   3,C   4)     56.3759         0.031119   
    166. D(C  15,O   5,C   3,C   0)   -122.7272         0.031119   
    167. D(C   7,C   6,C   4,C   9)     -9.0561         0.020513   
    168. D(C   2,C   6,C   4,C   9)    171.6450         0.020513   
    169. D(C   2,C   6,C   4,C   3)    -10.3199         0.020513   
    170. D(C   7,C   6,C   4,C   3)    168.9790         0.020513   
    171. D(C   7,C   6,C   2,H  26)      3.7300         0.023134   
    172. D(C   4,C   6,C   2,H  26)   -176.9733         0.023134   
    173. D(C   4,C   6,C   2,C   1)      2.8635         0.023134   
    174. D(C   7,C   6,C   2,C   1)   -176.4332         0.023134   
    175. D(H  29,C   7,C   6,C   4)   -179.3816         0.024562   
    176. D(H  29,C   7,C   6,C   2)     -0.0757         0.024562   
    177. D(C   8,C   7,C   6,C   4)     -2.5163         0.024562   
    178. D(C   8,C   7,C   6,C   2)    176.7895         0.024562   
    179. D(C  10,C   8,C   7,C   6)      5.9179         0.030095   
    180. D(H  30,C   8,C   7,H  29)      1.8572         0.030095   
    181. D(H  30,C   8,C   7,C   6)   -174.9754         0.030095   
    182. D(C  10,C   8,C   7,H  29)   -177.2495         0.030095   
    183. D(N  11,C   9,C   4,C   6)   -162.7948         0.023462   
    184. D(N  11,C   9,C   4,C   3)     19.3899         0.023462   
    185. D(C  10,C   9,C   4,C   6)     17.4373         0.023462   
    186. D(C  10,C   9,C   4,C   3)   -160.3781         0.023462   
    187. D(C  14,C  10,C   9,N  11)    -15.7437         0.021952   
    188. D(C  14,C  10,C   9,C   4)    164.0356         0.021952   
    189. D(C   8,C  10,C   9,N  11)    166.0657         0.021952   
    190. D(C   8,C  10,C   9,C   4)    -14.1549         0.021952   
    191. D(C  14,C  10,C   8,H  30)      5.0855         0.023253   
    192. D(C  14,C  10,C   8,C   7)   -175.7946         0.023253   
    193. D(C   9,C  10,C   8,H  30)   -176.7523         0.023253   
    194. D(C   9,C  10,C   8,C   7)      2.3676         0.023253   
    195. D(P  34,N  11,C   9,C  10)   -126.6370         0.021735   
    196. D(P  34,N  11,C   9,C   4)     53.5895         0.021735   
    197. D(C  12,N  11,C   9,C  10)     26.1249         0.021735   
    198. D(C  12,N  11,C   9,C   4)   -153.6487         0.021735   
    199. D(H  31,C  12,N  11,P  34)    -41.3286         0.023338   
    200. D(H  31,C  12,N  11,C   9)    164.2483         0.023338   
    201. D(C  13,C  12,N  11,P  34)    135.6892         0.023338   
    202. D(C  13,C  12,N  11,C   9)    -18.7339         0.023338   
    203. D(H  32,C  13,C  12,H  31)     -1.7142         0.035444   
    204. D(H  32,C  13,C  12,N  11)   -178.5062         0.035444   
    205. D(C  14,C  13,C  12,H  31)    176.5936         0.035444   
    206. D(C  14,C  13,C  12,N  11)     -0.1985         0.035444   
    207. D(C  10,C  14,C  13,C  12)     11.1917         0.025222   
    208. D(H  33,C  14,C  10,C   9)   -179.6934         0.024955   
    209. D(H  33,C  14,C  10,C   8)     -1.5668         0.024955   
    210. D(C  13,C  14,C  10,C   9)     -2.9822         0.024955   
    211. D(C  13,C  14,C  10,C   8)    175.1444         0.024955   
    212. D(H  33,C  14,C  13,H  32)      6.1083         0.025222   
    213. D(H  33,C  14,C  13,C  12)   -172.1587         0.025222   
    214. D(C  10,C  14,C  13,H  32)   -170.5413         0.025222   
    215. D(N  17,C  15,O   5,C   3)    176.8273         0.021761   
    216. D(O  16,C  15,O   5,C   3)     -2.4116         0.021761   
    217. D(C  19,N  17,C  15,O  16)      2.4362         0.039898   
    218. D(C  19,N  17,C  15,O   5)   -176.7465         0.039898   
    219. D(C  18,N  17,C  15,O  16)    172.4034         0.039898   
    220. D(C  18,N  17,C  15,O   5)     -6.7793         0.039898   
    221. D(H  25,C  18,N  17,C  15)   -105.9006         0.016627   
    222. D(H  24,C  18,N  17,C  19)   -174.3515         0.016627   
    223. D(H  24,C  18,N  17,C  15)     15.4263         0.016627   
    224. D(H  23,C  18,N  17,C  19)    -54.5048         0.016627   
    225. D(H  23,C  18,N  17,C  15)    135.2730         0.016627   
    226. D(H  22,C  19,N  17,C  15)   -137.2589         0.016719   
    227. D(H  21,C  19,N  17,C  18)    171.8189         0.016719   
    228. D(H  21,C  19,N  17,C  15)    -17.2860         0.016719   
    229. D(H  20,C  19,N  17,C  18)    -67.5196         0.016719   
    230. D(H  20,C  19,N  17,C  15)    103.3755         0.016719   
    231. D(O  37,P  34,N  11,C   9)    108.5717         0.006550   
    232. D(O  36,P  34,N  11,C  12)     61.5681         0.006550   
    233. D(O  36,P  34,N  11,C   9)   -145.3351         0.006550   
    234. D(O  35,P  34,N  11,C  12)   -171.0537         0.006550   
    235. D(O  35,P  34,N  11,C   9)    -17.9570         0.006550   
    236. D(C  38,O  36,P  34,O  37)    -54.5562         0.017371   
    237. D(C  38,O  36,P  34,O  35)     74.5630         0.017371   
    238. D(C  38,O  36,P  34,N  11)   -163.6493         0.017371   
    239. D(C  39,O  37,P  34,O  36)    155.8274         0.015948   
    240. D(C  39,O  37,P  34,O  35)     23.8727         0.015948   
    241. D(C  39,O  37,P  34,N  11)   -100.6492         0.015948   
    242. D(H  42,C  38,O  36,P  34)   -101.7478         0.014880   
    243. D(H  41,C  38,O  36,P  34)     15.8745         0.014880   
    244. D(C  40,C  38,O  36,P  34)    137.5640         0.014880   
    245. D(H  48,C  39,O  37,P  34)   -135.3303         0.015164   
    246. D(H  47,C  39,O  37,P  34)    -19.0798         0.015164   
    247. D(C  46,C  39,O  37,P  34)    104.2522         0.015164   
    248. D(H  44,C  40,C  38,H  42)     60.2914         0.013391   
    249. D(H  44,C  40,C  38,H  41)    -62.3557         0.013391   
    250. D(H  44,C  40,C  38,O  36)    177.4211         0.013391   
    251. D(H  43,C  40,C  38,H  42)    179.8002         0.013391   
    252. D(H  43,C  40,C  38,H  41)     57.1531         0.013391   
    253. D(H  43,C  40,C  38,O  36)    -63.0701         0.013391   
    254. D(H  50,C  46,C  39,H  48)    179.6917         0.013235   
    255. D(H  50,C  46,C  39,H  47)     57.2982         0.013235   
    256. D(H  50,C  46,C  39,O  37)    -63.9993         0.013235   
    257. D(H  49,C  46,C  39,H  48)    -58.9111         0.013235   
    258. D(H  49,C  46,C  39,H  47)    178.6955         0.013235   
    259. D(H  49,C  46,C  39,O  37)     57.3980         0.013235   
    -----------------------------------------------------------------

Number of atoms                         .... 52
Number of degrees of freedom            .... 259


         *************************************************************
         *                GEOMETRY OPTIMIZATION CYCLE   1            *
         *************************************************************
---------------------------------
CARTESIAN COORDINATES (ANGSTROEM)
---------------------------------
  C     -4.789863    0.283863    0.472230
  C     -5.378192   -0.565739    1.387967
  C     -4.582142   -1.140633    2.362409
  C     -3.430160    0.608777    0.553446
  C     -2.630470    0.175959    1.630624
  O     -2.964582    1.340946   -0.480361
  C     -3.216436   -0.809256    2.478608
  C     -2.418935   -1.464494    3.427960
  C     -1.070576   -1.200997    3.510524
  C     -1.314841    0.598171    1.902954
  C     -0.476906   -0.184213    2.735744
  N     -0.776680    1.786057    1.371651
  C      0.612325    1.839988    1.214365
  C      1.437708    0.992448    1.876474
  C      0.906093    0.035003    2.746936
  C     -1.896311    0.884071   -1.253165
  O     -1.329669   -0.152657   -0.997975
  N     -1.641291    1.720178   -2.256967
  C     -2.453289    2.874077   -2.610094
  C     -0.602596    1.364999   -3.210018
  H     -1.047881    1.004701   -4.139302
  H      0.031779    0.592120   -2.791564
  H     -0.005489    2.249655   -3.426154
  H     -1.794600    3.720307   -2.799488
  H     -3.133035    3.130943   -1.809058
  H     -3.020930    2.661275   -3.517721
  H     -4.996940   -1.857167    3.058512
  H     -5.350802    0.689487   -0.358492
  H     -6.427130   -0.811227    1.313394
  H     -2.865972   -2.218257    4.061968
  H     -0.446494   -1.767603    4.188709
  H      0.974986    2.629747    0.574004
  H      2.504569    1.091512    1.738747
  H      1.539864   -0.567815    3.380005
  P     -1.564375    3.300766    1.561408
  O     -2.971780    3.141529    1.926899
  O     -1.186224    3.947877    0.192915
  O     -0.697374    4.124354    2.581993
  C     -1.300306    5.379589   -0.062412
  C     -1.042027    4.268061    3.989483
  C     -0.078531    5.827991   -0.815981
  H     -1.399461    5.904432    0.885754
  H     -2.210271    5.516337   -0.642329
  H      0.820277    5.685854   -0.216683
  H     -0.173220    6.888037   -1.053111
  H      0.025720    5.273983   -1.748621
  C     -0.162277    3.393531    4.842631
  H     -2.096430    4.031607    4.113844
  H     -0.889714    5.322419    4.207385
  H      0.889770    3.630310    4.686664
  H     -0.323321    2.338217    4.623545
  H     -0.401880    3.565941    5.892592

----------------------------
CARTESIAN COORDINATES (A.U.)
----------------------------
  NO LB      ZA    FRAG     MASS         X           Y           Z
   0 C     6.0000    0    12.011   -9.051530    0.536423    0.892385
   1 C     6.0000    0    12.011  -10.163310   -1.069092    2.622878
   2 C     6.0000    0    12.011   -8.658993   -2.155484    4.464307
   3 C     6.0000    0    12.011   -6.482063    1.150421    1.045862
   4 C     6.0000    0    12.011   -4.970868    0.332515    3.081433
   5 O     8.0000    0    15.999   -5.602248    2.534021   -0.907750
   6 C     6.0000    0    12.011   -6.078183   -1.529271    4.683889
   7 C     6.0000    0    12.011   -4.571124   -2.767493    6.477906
   8 C     6.0000    0    12.011   -2.023095   -2.269556    6.633929
   9 C     6.0000    0    12.011   -2.484689    1.130380    3.596062
  10 C     6.0000    0    12.011   -0.901221   -0.348112    5.169806
  11 N     7.0000    0    14.007   -1.467713    3.375158    2.592044
  12 C     6.0000    0    12.011    1.157127    3.477073    2.294818
  13 C     6.0000    0    12.011    2.716874    1.875456    3.546023
  14 C     6.0000    0    12.011    1.712267    0.066146    5.190956
  15 C     6.0000    0    12.011   -3.583509    1.670651   -2.368138
  16 O     8.0000    0    15.999   -2.512711   -0.288480   -1.885899
  17 N     7.0000    0    14.007   -3.101591    3.250665   -4.265050
  18 C     6.0000    0    12.011   -4.636044    5.431218   -4.932362
  19 C     6.0000    0    12.011   -1.138741    2.579474   -6.066055
  20 H     1.0000    0     1.008   -1.980209    1.898610   -7.822147
  21 H     1.0000    0     1.008    0.060055    1.118945   -5.275291
  22 H     1.0000    0     1.008   -0.010373    4.251233   -6.474493
  23 H     1.0000    0     1.008   -3.391302    7.030362   -5.290266
  24 H     1.0000    0     1.008   -5.920577    5.916625   -3.418624
  25 H     1.0000    0     1.008   -5.708731    5.029082   -6.647530
  26 H     1.0000    0     1.008   -9.442848   -3.509537    5.779751
  27 H     1.0000    0     1.008  -10.111551    1.302942   -0.677451
  28 H     1.0000    0     1.008  -12.145516   -1.532996    2.481955
  29 H     1.0000    0     1.008   -5.415903   -4.191899    7.676007
  30 H     1.0000    0     1.008   -0.843751   -3.340285    7.915513
  31 H     1.0000    0     1.008    1.842456    4.969501    1.084711
  32 H     1.0000    0     1.008    4.732949    2.062658    3.285756
  33 H     1.0000    0     1.008    2.909921   -1.073015    6.387283
  34 P    15.0000    0    30.974   -2.956240    6.237544    2.950633
  35 O     8.0000    0    15.999   -5.615850    5.936629    3.641312
  36 O     8.0000    0    15.999   -2.241639    7.460406    0.364556
  37 O     8.0000    0    15.999   -1.317845    7.793900    4.879260
  38 C     6.0000    0    12.011   -2.457221   10.165949   -0.117941
  39 C     6.0000    0    12.011   -1.969146    8.065467    7.539030
  40 C     6.0000    0    12.011   -0.148401   11.013307   -1.541981
  41 H     1.0000    0     1.008   -2.644598   11.157759    1.673833
  42 H     1.0000    0     1.008   -4.176807   10.424367   -1.213825
  43 H     1.0000    0     1.008    1.550099   10.744707   -0.409472
  44 H     1.0000    0     1.008   -0.327338   13.016503   -1.990092
  45 H     1.0000    0     1.008    0.048603    9.966384   -3.304414
  46 C     6.0000    0    12.011   -0.306658    6.412844    9.151246
  47 H     1.0000    0     1.008   -3.961678    7.618634    7.774039
  48 H     1.0000    0     1.008   -1.681316   10.057914    7.950806
  49 H     1.0000    0     1.008    1.681422    6.860291    8.856511
  50 H     1.0000    0     1.008   -0.610988    4.418590    8.737233
  51 H     1.0000    0     1.008   -0.759443    6.738651   11.135385

--------------------------------
INTERNAL COORDINATES (ANGSTROEM)
--------------------------------
 C      0   0   0     0.000000000000     0.00000000     0.00000000
 C      1   0   0     1.380771253330     0.00000000     0.00000000
 C      2   1   0     1.383378290242   118.53380626     0.00000000
 C      1   2   3     1.400342210372   121.19981805   357.27227392
 C      4   1   2     1.409661724665   121.59468635   354.63311156
 O      4   1   2     1.349663623756   114.60703395   173.75799978
 C      3   2   1     1.410129699761   121.17782458     3.90156394
 C      7   3   2     1.402361190841   119.78539607   183.56682070
 C      8   7   3     1.376342376989   120.54935664   176.78952257
 C      5   4   1     1.408299555593   125.85089138   189.45496376
 C      9   8   7     1.409461061069   121.18307620     5.91786978
 N     10   5   4     1.408180506305   122.47701246    19.38985329
 C     12  10   5     1.398922122275   117.02631012   206.35132350
 C     13  12  10     1.355716601270   121.70117541   341.26608552
 C     14  13  12     1.398935018878   120.02607649   359.80151805
 C      6   4   1     1.395408178809   120.70923855   237.27281986
 O     16   6   4     1.208722085964   121.51964251   357.58840957
 N     16   6   4     1.331063254662   111.01823302   176.82734235
 C     18  16   6     1.454483248679   125.06243163   353.22069762
 C     18  16   6     1.453735480439   118.54335416   183.25345993
 H     20  18  16     1.091633001812   110.32081899   103.37554402
 H     20  18  16     1.083917582122   109.83343942   342.71403705
 H     20  18  16     1.088975848189   108.86943198   222.74107372
 H     19  18  16     1.088966604002   108.72584213   135.27302637
 H     19  18  16     1.081523241915   111.06826806    15.42634675
 H     19  18  16     1.091461711178   109.72825400   254.09941303
 H      3   2   1     1.081682956361   120.52552956   183.73472719
 H      1   2   3     1.081333688118   121.28407043   174.61660516
 H      2   1   3     1.079859559883   120.52844041   182.90693351
 H      8   7   3     1.081650376389   119.16805463   359.92427867
 H      9   8   7     1.081875402477   120.16301586   185.02457427
 H     13  12  10     1.079492481405   115.37073087   164.24825469
 H     14  13  12     1.080266155749   118.79432899   181.49376786
 H     15  14  13     1.079737088238   121.59258802   187.84126788
 P     12  10   5     1.717793309921   121.79693630    53.58947785
 O     35  12  10     1.462781442304   111.88856910   342.04303936
 O     35  12  10     1.560295795172    99.07251824   214.66487986
 O     35  12  10     1.572127004953   106.30581600   108.57169959
 C     37  35  12     1.458768367140   122.79285671   196.35068207
 C     38  35  12     1.456181797936   123.27380137   259.35084645
 C     39  37  35     1.503883575881   108.46967667   137.56404104
 H     39  37  35     1.088260626973   109.14502684    15.87448612
 H     39  37  35     1.087676555701   106.38798800   258.25217110
 H     41  39  37     1.089594796809   110.83392526   296.92988846
 H     41  39  37     1.090363918564   109.16533658   177.42105832
 H     41  39  37     1.089774660781   110.79168943    58.06138763
 C     40  38  35     1.505531413354   110.61562169   104.25221320
 H     40  38  35     1.087723142118   108.57152196   340.92020569
 H     40  38  35     1.087359230132   104.84669828   224.66970237
 H     47  40  38     1.089583546729   110.90793992    57.39799489
 H     47  40  38     1.089780638991   111.23729793   296.00071343
 H     47  40  38     1.090666580447   108.98560952   176.65161068

---------------------------
INTERNAL COORDINATES (A.U.)
---------------------------
 C      0   0   0     0.000000000000     0.00000000     0.00000000
 C      1   0   0     2.609279522385     0.00000000     0.00000000
 C      2   1   0     2.614206108170   118.53380626     0.00000000
 C      1   2   3     2.646263271372   121.19981805   357.27227392
 C      4   1   2     2.663874601088   121.59468635   354.63311156
 O      4   1   2     2.550494621815   114.60703395   173.75799978
 C      3   2   1     2.664758945857   121.17782458     3.90156394
 C      7   3   2     2.650078591528   119.78539607   183.56682070
 C      8   7   3     2.600910159020   120.54935664   176.78952257
 C      5   4   1     2.661300474594   125.85089138   189.45496376
 C      9   8   7     2.663495401847   121.18307620     5.91786978
 N     10   5   4     2.661075504044   122.47701246    19.38985329
 C     12  10   5     2.643579693783   117.02631012   206.35132350
 C     13  12  10     2.561933091611   121.70117541   341.26608552
 C     14  13  12     2.643604064831   120.02607649   359.80151805
 C      6   4   1     2.636939302983   120.70923855   237.27281986
 O     16   6   4     2.284153714495   121.51964251   357.58840957
 N     16   6   4     2.515345018236   111.01823302   176.82734235
 C     18  16   6     2.748575006380   125.06243163   353.22069762
 C     18  16   6     2.747161929195   118.54335416   183.25345993
 H     20  18  16     2.062887412175   110.32081899   103.37554402
 H     20  18  16     2.048307381953   109.83343942   342.71403705
 H     20  18  16     2.057866119532   108.86943198   222.74107372
 H     19  18  16     2.057848650550   108.72584213   135.27302637
 H     19  18  16     2.043782734690   111.06826806    15.42634675
 H     19  18  16     2.062563719787   109.72825400   254.09941303
 H      3   2   1     2.044084551252   120.52552956   183.73472719
 H      1   2   3     2.043424529926   121.28407043   174.61660516
 H      2   1   3     2.040638831276   120.52844041   182.90693351
 H      8   7   3     2.044022984028   119.16805463   359.92427867
 H      9   8   7     2.044448221707   120.16301586   185.02457427
 H     13  12  10     2.039945153483   115.37073087   164.24825469
 H     14  13  12     2.041407186110   118.79432899   181.49376786
 H     15  14  13     2.040407393408   121.59258802   187.84126788
 P     12  10   5     3.246158910432   121.79693630    53.58947785
 O     35  12  10     2.764256319736   111.88856910   342.04303936
 O     35  12  10     2.948531740783    99.07251824   214.66487986
 O     35  12  10     2.970889487103   106.30581600   108.57169959
 C     37  35  12     2.756672706722   122.79285671   196.35068207
 C     38  35  12     2.751784799301   123.27380137   259.35084645
 C     39  37  35     2.841928095717   108.46967667   137.56404104
 H     39  37  35     2.056514547309   109.14502684    15.87448612
 H     39  37  35     2.055410812561   106.38798800   258.25217110
 H     41  39  37     2.059035762915   110.83392526   296.92988846
 H     41  39  37     2.060489192395   109.16533658   177.42105832
 H     41  39  37     2.059375656562   110.79168943    58.06138763
 C     40  38  35     2.845042057254   110.61562169   104.25221320
 H     40  38  35     2.055498848131   108.57152196   340.92020569
 H     40  38  35     2.054811154141   104.84669828   224.66970237
 H     47  40  38     2.059014503345   110.90793992    57.39799489
 H     47  40  38     2.059386953742   111.23729793   296.00071343
 H     47  40  38     2.061061140466   108.98560952   176.65161068

---------------------
BASIS SET INFORMATION
---------------------
There are 5 groups of distinct atoms

 Group   1 Type C   : 11s6p2d contracted to 5s3p2d pattern {62111/411/11}
 Group   2 Type O   : 11s6p2d contracted to 5s3p2d pattern {62111/411/11}
 Group   3 Type N   : 11s6p2d contracted to 5s3p2d pattern {62111/411/11}
 Group   4 Type H   : 5s1p contracted to 3s1p pattern {311/1}
 Group   5 Type P   : 14s9p3d contracted to 5s5p2d pattern {73211/51111/21}

Atom   0C    basis set group =>   1
Atom   1C    basis set group =>   1
Atom   2C    basis set group =>   1
Atom   3C    basis set group =>   1
Atom   4C    basis set group =>   1
Atom   5O    basis set group =>   2
Atom   6C    basis set group =>   1
Atom   7C    basis set group =>   1
Atom   8C    basis set group =>   1
Atom   9C    basis set group =>   1
Atom  10C    basis set group =>   1
Atom  11N    basis set group =>   3
Atom  12C    basis set group =>   1
Atom  13C    basis set group =>   1
Atom  14C    basis set group =>   1
Atom  15C    basis set group =>   1
Atom  16O    basis set group =>   2
Atom  17N    basis set group =>   3
Atom  18C    basis set group =>   1
Atom  19C    basis set group =>   1
Atom  20H    basis set group =>   4
Atom  21H    basis set group =>   4
Atom  22H    basis set group =>   4
Atom  23H    basis set group =>   4
Atom  24H    basis set group =>   4
Atom  25H    basis set group =>   4
Atom  26H    basis set group =>   4
Atom  27H    basis set group =>   4
Atom  28H    basis set group =>   4
Atom  29H    basis set group =>   4
Atom  30H    basis set group =>   4
Atom  31H    basis set group =>   4
Atom  32H    basis set group =>   4
Atom  33H    basis set group =>   4
Atom  34P    basis set group =>   5
Atom  35O    basis set group =>   2
Atom  36O    basis set group =>   2
Atom  37O    basis set group =>   2
Atom  38C    basis set group =>   1
Atom  39C    basis set group =>   1
Atom  40C    basis set group =>   1
Atom  41H    basis set group =>   4
Atom  42H    basis set group =>   4
Atom  43H    basis set group =>   4
Atom  44H    basis set group =>   4
Atom  45H    basis set group =>   4
Atom  46C    basis set group =>   1
Atom  47H    basis set group =>   4
Atom  48H    basis set group =>   4
Atom  49H    basis set group =>   4
Atom  50H    basis set group =>   4
Atom  51H    basis set group =>   4
---------------------------------
AUXILIARY/J BASIS SET INFORMATION
---------------------------------
There are 5 groups of distinct atoms

 Group   1 Type C   : 12s5p4d2f1g contracted to 6s4p3d1f1g pattern {711111/2111/211/2/1}
 Group   2 Type O   : 12s5p4d2f1g contracted to 6s4p3d1f1g pattern {711111/2111/211/2/1}
 Group   3 Type N   : 12s5p4d2f1g contracted to 6s4p3d1f1g pattern {711111/2111/211/2/1}
 Group   4 Type H   : 5s2p1d contracted to 3s1p1d pattern {311/2/1}
 Group   5 Type P   : 14s5p5d2f1g contracted to 8s4p3d1f1g pattern {71111111/2111/311/2/1}

Atom   0C    basis set group =>   1
Atom   1C    basis set group =>   1
Atom   2C    basis set group =>   1
Atom   3C    basis set group =>   1
Atom   4C    basis set group =>   1
Atom   5O    basis set group =>   2
Atom   6C    basis set group =>   1
Atom   7C    basis set group =>   1
Atom   8C    basis set group =>   1
Atom   9C    basis set group =>   1
Atom  10C    basis set group =>   1
Atom  11N    basis set group =>   3
Atom  12C    basis set group =>   1
Atom  13C    basis set group =>   1
Atom  14C    basis set group =>   1
Atom  15C    basis set group =>   1
Atom  16O    basis set group =>   2
Atom  17N    basis set group =>   3
Atom  18C    basis set group =>   1
Atom  19C    basis set group =>   1
Atom  20H    basis set group =>   4
Atom  21H    basis set group =>   4
Atom  22H    basis set group =>   4
Atom  23H    basis set group =>   4
Atom  24H    basis set group =>   4
Atom  25H    basis set group =>   4
Atom  26H    basis set group =>   4
Atom  27H    basis set group =>   4
Atom  28H    basis set group =>   4
Atom  29H    basis set group =>   4
Atom  30H    basis set group =>   4
Atom  31H    basis set group =>   4
Atom  32H    basis set group =>   4
Atom  33H    basis set group =>   4
Atom  34P    basis set group =>   5
Atom  35O    basis set group =>   2
Atom  36O    basis set group =>   2
Atom  37O    basis set group =>   2
Atom  38C    basis set group =>   1
Atom  39C    basis set group =>   1
Atom  40C    basis set group =>   1
Atom  41H    basis set group =>   4
Atom  42H    basis set group =>   4
Atom  43H    basis set group =>   4
Atom  44H    basis set group =>   4
Atom  45H    basis set group =>   4
Atom  46C    basis set group =>   1
Atom  47H    basis set group =>   4
Atom  48H    basis set group =>   4
Atom  49H    basis set group =>   4
Atom  50H    basis set group =>   4
Atom  51H    basis set group =>   4
------------------------------------------------------------------------------
                             ORCA STARTUP CALCULATIONS
                           -- RI-GTO INTEGRALS CHOSEN --
------------------------------------------------------------------------------
------------------------------------------------------------------------------
                   ___                                                        
                  /   \      - P O W E R E D   B Y -                         
                 /     \                                                     
                 |  |  |   _    _      __       _____    __    __             
                 |  |  |  | |  | |    /  \     |  _  \  |  |  /  |          
                  \  \/   | |  | |   /    \    | | | |  |  | /  /          
                 / \  \   | |__| |  /  /\  \   | |_| |  |  |/  /          
                |  |  |   |  __  | /  /__\  \  |    /   |      \           
                |  |  |   | |  | | |   __   |  |    \   |  |\   \          
                \     /   | |  | | |  |  |  |  | |\  \  |  | \   \       
                 \___/    |_|  |_| |__|  |__|  |_| \__\ |__|  \__/        
                                                                              
                      - O R C A' S   B I G   F R I E N D -                    
                                      &                                       
                       - I N T E G R A L  F E E D E R -                       
                                                                              
 v1 FN, 2020, v2 2021, v3 2022-2024                                           
------------------------------------------------------------------------------


----------------------
SHARK INTEGRAL PACKAGE
----------------------

Number of atoms                             ...     52
Number of basis functions                   ...    822
Number of shells                            ...    378
Maximum angular momentum                    ...      2
Integral batch strategy                     ... SHARK/LIBINT Hybrid
RI-J (if used) integral strategy            ... SPLIT-RIJ (Revised 2003 algorithm where possible)
Printlevel                                  ...      1
Contraction scheme used                     ... SEGMENTED contraction
Prescreening option                         ... SCHWARTZ
   Thresh                                   ... 2.500e-11
   Tcut                                     ... 2.500e-12
   Tpresel                                  ... 2.500e-12 
Coulomb Range Separation                    ... NOT USED
Exchange Range Separation                   ... Long Range
   Mu parameter                             ... 3.300e-01
   Scaling (regular/separated)              ... 1.900e-01 4.600e-01
Multipole approximations                    ... NOT USED
Finite Nucleus Model                        ... NOT USED
CABS basis                                  ... NOT available
Auxiliary Coulomb fitting basis             ... AVAILABLE
   # of basis functions in Aux-J            ...   1638
   # of shells in Aux-J                     ...    542
   Maximum angular momentum in Aux-J        ...      4
Auxiliary J/K fitting basis                 ... NOT available
Auxiliary Correlation fitting basis         ... NOT available
Auxiliary 'external' fitting basis          ... NOT available

Checking pre-screening integrals            ... done (  0.0 sec) Dimension = 378
Check shell pair data                       ... done (  0.0 sec)
Shell pair information
Shell pair cut-off parameter TPreSel        ...   2.5e-12
Total number of shell pairs                 ...     71631
Shell pairs after pre-screening             ...     50563
Total number of primitive shell pairs       ...    234288
Primitive shell pairs kept                  ...    104916
          la=0 lb=0:  15128 shell pairs
          la=1 lb=0:  16857 shell pairs
          la=1 lb=1:   4737 shell pairs
          la=2 lb=0:   8086 shell pairs
          la=2 lb=1:   4595 shell pairs
          la=2 lb=2:   1160 shell pairs

Calculating one electron integrals          ... done (  0.2 sec)
Calculating RI/J V-Matrix + Cholesky decomp.... done (  0.5 sec)
Calculating Nuclear repulsion               ... done (  0.0 sec) ENN=   3173.703225600681 Eh

Diagonalization of the overlap matrix:
Smallest eigenvalue                        ... 4.666e-06
Time for diagonalization                   ...    0.054 sec
Threshold for overlap eigenvalues          ... 1.000e-07
Number of eigenvalues below threshold      ... 0
Time for construction of square roots      ...    0.085 sec
Total time needed                          ...    0.150 sec

-------------------
DFT GRID GENERATION
-------------------

General Integration Accuracy     IntAcc      ... 4.388
Radial Grid Type                 RadialGrid  ... OptM3 with GC (2021)
Angular Grid (max. ang.)         AngularGrid ... 4 (Lebedev-302)
Angular grid pruning method      GridPruning ... 4 (adaptive)
Weight generation scheme         WeightScheme... mBecke (2022)
Basis function cutoff            BFCut       ... 1.0000e-11
Integration weight cutoff        WCut        ... 1.0000e-14
Partially contracted basis set               ... off
Rotationally invariant grid construction     ... off
Angular grids for H and He will be reduced by one unit

Total number of grid points                  ...   244161
Total number of batches                      ...     3840
Average number of points per batch           ...       63
Average number of grid points per atom       ...     4695

--------------------
COSX GRID GENERATION
--------------------

GRIDX 1
-------
General Integration Accuracy     IntAcc      ... 3.816
Radial Grid Type                 RadialGrid  ... OptM3 with GC (2021)
Angular Grid (max. ang.)         AngularGrid ... 1 (Lebedev-50)
Angular grid pruning method      GridPruning ... 4 (adaptive)
Weight generation scheme         WeightScheme... mBecke (2022)
Basis function cutoff            BFCut       ... 1.0000e-11
Integration weight cutoff        WCut        ... 1.0000e-14
Partially contracted basis set               ... on
Rotationally invariant grid construction     ... off
Angular grids for H and He will be reduced by one unit

Total number of grid points                  ...    31932
Total number of batches                      ...      277
Average number of points per batch           ...      115
Average number of grid points per atom       ...      614
UseSFitting                                  ... on

GRIDX 2
-------
General Integration Accuracy     IntAcc      ... 4.020
Radial Grid Type                 RadialGrid  ... OptM3 with GC (2021)
Angular Grid (max. ang.)         AngularGrid ... 2 (Lebedev-110)
Angular grid pruning method      GridPruning ... 4 (adaptive)
Weight generation scheme         WeightScheme... mBecke (2022)
Basis function cutoff            BFCut       ... 1.0000e-11
Integration weight cutoff        WCut        ... 1.0000e-14
Partially contracted basis set               ... on
Rotationally invariant grid construction     ... off
Angular grids for H and He will be reduced by one unit

Total number of grid points                  ...    66295
Total number of batches                      ...      542
Average number of points per batch           ...      122
Average number of grid points per atom       ...     1275
UseSFitting                                  ... on

GRIDX 3
-------
General Integration Accuracy     IntAcc      ... 4.338
Radial Grid Type                 RadialGrid  ... OptM3 with GC (2021)
Angular Grid (max. ang.)         AngularGrid ... 3 (Lebedev-194)
Angular grid pruning method      GridPruning ... 4 (adaptive)
Weight generation scheme         WeightScheme... mBecke (2022)
Basis function cutoff            BFCut       ... 1.0000e-11
Integration weight cutoff        WCut        ... 1.0000e-14
Partially contracted basis set               ... on
Rotationally invariant grid construction     ... off
Angular grids for H and He will be reduced by one unit

Total number of grid points                  ...   144845
Total number of batches                      ...     1156
Average number of points per batch           ...      125
Average number of grid points per atom       ...     2785
UseSFitting                                  ... on
Initializing property integral containers    ... done (  0.0 sec)

SHARK setup successfully completed in   9.1 seconds

Maximum memory used throughout the entire STARTUP-calculation: 176.6 MB
-------------------------------------------------------------------------------
                                 ORCA GUESS
                   Start orbitals & Density for SCF / CASSCF
-------------------------------------------------------------------------------

------------
SCF SETTINGS
------------
Hamiltonian:
 Density Functional     Method          .... DFT(GTOs)
 Exchange Functional    Exchange        .... WB88
 Correlation Functional Correlation     .... LYP
 LDA part of GGA corr.  LDAOpt          .... VWN-5
 Gradients option       PostSCFGGA      .... off
 Hybrid DFT is turned on
   Fraction HF Exchange ScalHFX         ....  0.190000
   Scaling of DF-GGA-X  ScalDFX         ....  0.350000
   Scaling of DF-GGA-C  ScalDFC         ....  0.810000
   Scaling of DF-LDA-C  ScalLDAC        ....  1.000000
   Perturbative correction              ....  0.000000
 Long-range corrected/Screened/Range-Separated Hybrid DFT is turned on
   Amount of maximum screened exact exchange              ....  0.460000
   Range separation parameter mu (erf(mu*r12)/r12)        ....  0.330000
 RI-approximation to the Coulomb term is turned on
   Number of AuxJ basis functions       .... 1638
   RIJ-COSX (HFX calculated with COS-X)).... on


General Settings:
 Integral files         IntName         .... hbq-dcp-es
 Hartree-Fock type      HFTyp           .... RHF
 Total Charge           Charge          ....    1
 Multiplicity           Mult            ....    1
 Number of Electrons    NEL             ....  212
 Basis Dimension        Dim             ....  822
 Nuclear Repulsion      ENuc            ....   3173.7032256007 Eh

Convergence Acceleration:
 AO-DIIS                CNVDIIS         .... on
   Start iteration      DIISMaxIt       ....    12
   Startup error        DIISStart       ....  0.200000
   # of expansion vecs  DIISMaxEq       ....     5
   Bias factor          DIISBfac        ....   1.050
   Max. coefficient     DIISMaxC        ....  10.000
 MO-DIIS                CNVKDIIS        .... off
 Trust-Rad. Augm. Hess. CNVTRAH         .... auto
   Auto Start mean grad. ratio tolernc. ....  1.125000
   Auto Start start iteration           ....    50
   Auto Start num. interpolation iter.  ....    10
   Max. Number of Micro iterations      ....    24
   Max. Number of Macro iterations      .... Maxiter - #DIIS iter
   Number of Davidson start vectors     ....     2
   Converg. threshold    (grad. norm)   ....   1.000e-05
   Grad. Scal. Fac. for Micro threshold ....   0.100
   Minimum threshold for Micro iter.    ....   1.000e-02
   NR start threshold (gradient norm)   ....   1.000e-04
   Initial trust radius                 ....   0.400
   Minimum AH scaling param. (alpha)    ....   1.000
   Maximum AH scaling param. (alpha)    .... 1000.000
   Quad. conv. algorithm                .... NR
   White noise on init. David. guess    .... on
   Maximum white noise                  ....   0.010
   Pseudo random numbers                .... off
   Inactive MOs                         .... canonical
   Orbital update algorithm             .... Taylor
   Preconditioner                       .... Diag
   Full preconditioner red. dimension   ....   250
 SOSCF                  CNVSOSCF        .... on
   Start iteration      SOSCFMaxIt      ....   150
   Startup grad/error   SOSCFStart      ....  0.003300
   Hessian update       SOSCFHessUp     .... L-BFGS
 Level Shifting         CNVShift        .... on
   Level shift para.    LevelShift      ....    0.2500
   Turn off err/grad.   ShiftErr        ....    0.0010
 Zerner damping         CNVZerner       .... off
 Static damping         CNVDamp         .... on
   Fraction old density DampFac         ....    0.7000
   Max. Damping (<1)    DampMax         ....    0.9800
   Min. Damping (>=0)   DampMin         ....    0.0000
   Turn off err/grad.   DampErr         ....    0.1000

SCF Procedure:
 Maximum # iterations   MaxIter         ....   125
 SCF integral mode      SCFMode         .... Direct
   Integral package                     .... SHARK and LIBINT hybrid scheme
 Reset frequency        DirectResetFreq ....    20
 Integral Threshold     Thresh          ....  2.500e-11 Eh
 Primitive CutOff       TCut            ....  2.500e-12 Eh

Convergence Tolerance:
 Convergence Check Mode ConvCheckMode   .... Total+1el-Energy
 Convergence forced     ConvForced      .... 1
 Energy Change          TolE            ....  1.000e-08 Eh
 1-El. energy change                    ....  1.000e-05 Eh
 Orbital Gradient       TolG            ....  1.000e-05
 Orbital Rotation angle TolX            ....  1.000e-05
 DIIS Error             TolErr          ....  5.000e-07

------------------------------
INITIAL GUESS: MODEL POTENTIAL
------------------------------
Loading Hartree-Fock densities                     ... done
Calculating cut-offs                               ... done
Initializing the effective Hamiltonian             ... done
Setting up the integral package (SHARK)            ... done
Starting the Coulomb interaction                   ... done (   2.1 sec)
Making the grid                                    ... done (   0.7 sec)
Mapping shells                                     ... done
Starting the XC term evaluation                    ... done (   1.0 sec)
  promolecular density results
     # of electrons  =    212.981317645
     EX              =   -186.021853942
     EC              =     -7.274387171
     EX+EC           =   -193.296241114
Transforming the Hamiltonian                       ... done (   0.0 sec)
Diagonalizing the Hamiltonian                      ... done (   0.1 sec)
Back transforming the eigenvectors                 ... done (   0.1 sec)
Now organizing SCF variables                       ... done
                      ------------------
                      INITIAL GUESS DONE (   4.2 sec)
                      ------------------
             **** ENERGY FILE WAS UPDATED (hbq-dcp-es.en.tmp) ****
Finished Guess after   5.1 sec
Maximum memory used throughout the entire GUESS-calculation: 128.9 MB

-------------------------------------------------------------------------------------------
                                      ORCA LEAN-SCF
                              memory conserving SCF solver
-------------------------------------------------------------------------------------------

--------------------
CPCM SOLVATION MODEL
--------------------
CPCM parameters:
  Epsilon                                         ...      80.1510
  Refrac                                          ...       1.3328
  Rsolv                                           ...       1.3000
  Surface type                                    ... GAUSSIAN VDW
  Discretization scheme                           ... Constant charge density
    Threshold for H atoms                         ...       5.0000 (charges/Ang^2)
    Threshold for non-H atoms                     ...       5.0000 (charges/Ang^2)
  Epsilon function type                           ...         CPCM
Solvent:                                          ... WATER
Radii:
  Scheme                                          ... Element-dependent radii
  Radius for C  used is    3.8550 Bohr (=   2.0400 Ang.)
  Radius for O  used is    3.4469 Bohr (=   1.8240 Ang.)
  Radius for N  used is    3.5149 Bohr (=   1.8600 Ang.)
  Radius for H  used is    2.4944 Bohr (=   1.3200 Ang.)
  Radius for P  used is    4.0818 Bohr (=   2.1600 Ang.)
Calculating surface                               ...        done! (  0.0s)
Cavity surface points                             ...         4332
Cavity Volume                                     ...    3069.8292
Cavity Surface-area                               ...    1503.7762
Calculating surface distance matrix               ...        done! (  0.1s)
Performing Cholesky decomposition & store         ...        done! (  1.7s)
Overall time for CPCM initialization              ...                 1.8s

----------------------------------------D-I-I-S--------------------------------------------
Iteration    Energy (Eh)           Delta-E    RMSDP     MaxDP     DIISErr   Damp  Time(sec)
-------------------------------------------------------------------------------------------
               ***  Starting incremental Fock matrix formation  ***
    1    -1602.7197271893719517     0.00e+00  1.86e-03  1.76e-01  3.39e-01  0.700 102.9
    2    -1603.0122158536887582    -2.92e-01  1.42e-03  1.25e-01  1.41e-01  0.700  47.6
                               ***Turning on AO-DIIS***
    3    -1603.1379280651735826    -1.26e-01  9.57e-04  9.35e-02  4.39e-02  0.700  47.4
    4    -1603.2144092537128017    -7.65e-02  2.12e-03  2.33e-01  2.46e-02  0.000  44.8
    5    -1603.3818655024952022    -1.67e-01  1.46e-04  7.89e-03  5.01e-03  0.000  47.7
                              *** Initializing SOSCF ***
---------------------------------------S-O-S-C-F--------------------------------------
Iteration    Energy (Eh)           Delta-E    RMSDP     MaxDP     MaxGrad    Time(sec)
--------------------------------------------------------------------------------------
    6    -1603.3823924531770899    -5.27e-04  5.05e-05  2.44e-03  1.85e-03    40.3
               *** Restarting incremental Fock matrix formation ***
    7    -1603.3824520423240756    -5.96e-05  7.73e-05  3.79e-03  8.37e-04   103.6
    8    -1603.3824774679042093    -2.54e-05  5.57e-05  2.34e-03  2.76e-04    69.3
    9    -1603.3824855145740003    -8.05e-06  4.05e-05  2.01e-03  1.56e-04    67.4
   10    -1603.3824881594964609    -2.64e-06  8.95e-06  3.87e-04  3.56e-05    64.6
   11    -1603.3824882734425046    -1.14e-07  4.65e-06  2.72e-04  2.17e-05    52.4
   12    -1603.3824883838524329    -1.10e-07  4.17e-06  4.20e-04  1.06e-05    47.5
   13    -1603.3824883476727337     3.62e-08  1.92e-06  2.05e-04  6.42e-06    41.1
   14    -1603.3824884041323457    -5.65e-08  2.91e-06  4.22e-04  2.13e-06    36.2
                  *** Gradient check signals convergence ***

               *****************************************************
               *                     SUCCESS                       *
               *           SCF CONVERGED AFTER  14 CYCLES          *
               *****************************************************

Recomputing exchange energy using gridx3       ... done (  188.938 sec)
Old exchange energy                            :    -52.653360052 Eh
New exchange energy                            :    -52.653359800 Eh
Exchange energy change after final integration :      0.000000252 Eh
Total energy after final integration           :  -1603.382488152 Eh
             **** ENERGY FILE WAS UPDATED (hbq-dcp-es.en.tmp) ****

----------------
TOTAL SCF ENERGY
----------------

Total Energy       :      -1603.38248815220459 Eh          -43630.25562 eV

Components:
Nuclear Repulsion  :       3173.70322560068144 Eh           86360.85527 eV
Electronic Energy  :      -4777.00065149155580 Eh         -129988.79623 eV
One Electron Energy:      -8481.06368502002442 Eh         -230781.47557 eV
Two Electron Energy:       3704.06303352846862 Eh          100792.67934 eV
CPCM Dielectric    :         -0.08506251325835 Eh              -2.31467 eV

Virial components:
Potential Energy   :      -3200.71739649625852 Eh          -87095.94823 eV
Kinetic Energy     :       1597.33490834405416 Eh           43465.69261 eV
Virial Ratio       :          2.00378604372606

DFT components:
N(Alpha)           :      105.999907084005 electrons
N(Beta)            :      105.999907084005 electrons
N(Total)           :      211.999814168010 electrons
E(XC)              :     -144.632656401484 Eh       

CPCM Solvation Model Properties:
Surface-charge          :         -1.03471591429504
Corrected charge        :         -1.00000000000000
Outlying charge corr.   :          0.00006015761025 Eh               0.00164 eV
Free-energy (cav+disp)  :  This term is not implemented in the current solvation scheme

---------------
SCF CONVERGENCE
---------------

  Last Energy change         ...    5.6460e-08  Tolerance :   1.0000e-08
  Last MAX-Density change    ...    4.2226e-04  Tolerance :   1.0000e-07
  Last RMS-Density change    ...    2.9072e-06  Tolerance :   5.0000e-09
  Last DIIS Error            ...    1.8460e-03  Tolerance :   5.0000e-07
  Last Orbital Gradient      ...    2.1268e-06  Tolerance :   1.0000e-05
  Last Orbital Rotation      ...    1.2909e-05  Tolerance :   1.0000e-05


----------------
ORBITAL ENERGIES
----------------

  NO   OCC          E(Eh)            E(eV) 
   0   2.0000     -77.290591     -2103.1839 
   1   2.0000     -19.262733      -524.1656 
   2   2.0000     -19.253387      -523.9113 
   3   2.0000     -19.252982      -523.9003 
   4   2.0000     -19.187470      -522.1176 
   5   2.0000     -19.187451      -522.1171 
   6   2.0000     -14.500652      -394.5828 
   7   2.0000     -14.435390      -392.8069 
   8   2.0000     -10.411984      -283.3245 
   9   2.0000     -10.358423      -281.8670 
  10   2.0000     -10.350006      -281.6380 
  11   2.0000     -10.341652      -281.4106 
  12   2.0000     -10.321497      -280.8622 
  13   2.0000     -10.314551      -280.6732 
  14   2.0000     -10.311615      -280.5933 
  15   2.0000     -10.303913      -280.3837 
  16   2.0000     -10.293894      -280.1111 
  17   2.0000     -10.291720      -280.0519 
  18   2.0000     -10.289795      -279.9996 
  19   2.0000     -10.276313      -279.6327 
  20   2.0000     -10.273887      -279.5667 
  21   2.0000     -10.273114      -279.5456 
  22   2.0000     -10.272671      -279.5336 
  23   2.0000     -10.271132      -279.4917 
  24   2.0000     -10.265011      -279.3252 
  25   2.0000     -10.264535      -279.3122 
  26   2.0000     -10.238938      -278.6157 
  27   2.0000     -10.238442      -278.6022 
  28   2.0000      -6.759263      -183.9289 
  29   2.0000      -4.922846      -133.9575 
  30   2.0000      -4.922099      -133.9371 
  31   2.0000      -4.920532      -133.8945 
  32   2.0000      -1.219988       -33.1976 
  33   2.0000      -1.201110       -32.6839 
  34   2.0000      -1.141435       -31.0600 
  35   2.0000      -1.127839       -30.6901 
  36   2.0000      -1.110257       -30.2116 
  37   2.0000      -1.077792       -29.3282 
  38   2.0000      -1.045097       -28.4385 
  39   2.0000      -0.995221       -27.0814 
  40   2.0000      -0.958406       -26.0796 
  41   2.0000      -0.928823       -25.2746 
  42   2.0000      -0.894442       -24.3390 
  43   2.0000      -0.871266       -23.7084 
  44   2.0000      -0.862576       -23.4719 
  45   2.0000      -0.853748       -23.2317 
  46   2.0000      -0.845148       -22.9976 
  47   2.0000      -0.808644       -22.0043 
  48   2.0000      -0.802037       -21.8245 
  49   2.0000      -0.786506       -21.4019 
  50   2.0000      -0.762801       -20.7569 
  51   2.0000      -0.751622       -20.4527 
  52   2.0000      -0.734112       -19.9762 
  53   2.0000      -0.721119       -19.6226 
  54   2.0000      -0.717952       -19.5365 
  55   2.0000      -0.683613       -18.6021 
  56   2.0000      -0.672529       -18.3004 
  57   2.0000      -0.648592       -17.6491 
  58   2.0000      -0.636639       -17.3238 
  59   2.0000      -0.623524       -16.9670 
  60   2.0000      -0.620540       -16.8857 
  61   2.0000      -0.618046       -16.8179 
  62   2.0000      -0.613807       -16.7026 
[...]
      pz      :     1.077165  p :     2.941813
      px      :     1.093146
      py      :     0.771502
      dz2     :     0.072302  d :     0.482648
      dxz     :     0.071337
      dyz     :     0.102911
      dx2y2   :     0.136221
      dxy     :     0.099877
 39 C s       :     2.813239  s :     2.813239
      pz      :     0.785856  p :     2.941055
      px      :     1.073414
      py      :     1.081784
      dz2     :     0.153683  d :     0.484450
      dxz     :     0.099494
      dyz     :     0.099372
      dx2y2   :     0.101428
      dxy     :     0.030472
 40 C s       :     2.833372  s :     2.833372
      pz      :     1.072859  p :     3.211796
      px      :     1.061423
      py      :     1.077514
      dz2     :     0.047769  d :     0.236960
      dxz     :     0.063118
      dyz     :     0.033012
      dx2y2   :     0.070014
      dxy     :     0.023047
 41 H s       :     0.815868  s :     0.815868
      pz      :     0.032594  p :     0.060158
      px      :     0.012813
      py      :     0.014750
 42 H s       :     0.815905  s :     0.815905
      pz      :     0.020711  p :     0.058751
      px      :     0.030827
      py      :     0.007213
 43 H s       :     0.821689  s :     0.821689
      pz      :     0.019585  p :     0.060438
      px      :     0.027962
      py      :     0.012891
 44 H s       :     0.812666  s :     0.812666
      pz      :     0.013543  p :     0.060315
      px      :     0.012066
      py      :     0.034706
 45 H s       :     0.822446  s :     0.822446
      pz      :     0.029775  p :     0.060542
      px      :     0.012059
      py      :     0.018708
 46 C s       :     2.833102  s :     2.833102
      pz      :     1.067383  p :     3.212832
      px      :     1.074098
      py      :     1.071350
      dz2     :     0.065106  d :     0.237258
      dxz     :     0.028642
      dyz     :     0.027588
      dx2y2   :     0.086748
      dxy     :     0.029174
 47 H s       :     0.818799  s :     0.818799
      pz      :     0.007731  p :     0.060592
      px      :     0.039001
      py      :     0.013860
 48 H s       :     0.815705  s :     0.815705
      pz      :     0.008014  p :     0.058238
      px      :     0.013197
      py      :     0.037027
 49 H s       :     0.821331  s :     0.821331
      pz      :     0.012758  p :     0.060463
      px      :     0.034518
      py      :     0.013187
 50 H s       :     0.821764  s :     0.821764
      pz      :     0.013258  p :     0.060786
      px      :     0.012915
      py      :     0.034613
 51 H s       :     0.813002  s :     0.813002
      pz      :     0.033834  p :     0.060263
      px      :     0.013490
      py      :     0.012939


                      *****************************
                      * MAYER POPULATION ANALYSIS *
                      *****************************

  NA   - Mulliken gross atomic population
  ZA   - Total nuclear charge
  QA   - Mulliken gross atomic charge
  VA   - Mayer's total valence
  BVA  - Mayer's bonded valence
  FA   - Mayer's free valence

  ATOM       NA         ZA         QA         VA         BVA        FA
  0 C      6.1446     6.0000    -0.1446     3.9767     3.8406     0.1361
  1 C      6.1101     6.0000    -0.1101     3.8394     3.7466     0.0929
  2 C      6.0977     6.0000    -0.0977     3.7598     3.5631     0.1967
  3 C      5.6623     6.0000     0.3377     3.7382     3.5781     0.1602
  4 C      5.8665     6.0000     0.1335     3.9264     3.8914     0.0350
  5 O      8.4881     8.0000    -0.4881     2.0455     1.9970     0.0485
  6 C      5.8763     6.0000     0.1237     4.0228     3.9325     0.0903
  7 C      6.1280     6.0000    -0.1280     3.7701     3.6349     0.1352
  8 C      6.1773     6.0000    -0.1773     3.7844     3.6290     0.1554
  9 C      5.9305     6.0000     0.0695     3.8661     3.6730     0.1931
 10 C      5.7432     6.0000     0.2568     3.9011     3.8465     0.0546
 11 N      7.3466     7.0000    -0.3466     3.0485     2.9292     0.1194
 12 C      6.0364     6.0000    -0.0364     4.0232     3.8343     0.1890
 13 C      6.0666     6.0000    -0.0666     3.8352     3.7927     0.0425
 14 C      6.2405     6.0000    -0.2405     3.8863     3.6003     0.2860
 15 C      5.2736     6.0000     0.7264     4.1620     4.1558     0.0062
 16 O      8.5850     8.0000    -0.5850     2.0328     2.0236     0.0092
 17 N      7.2281     7.0000    -0.2281     3.2638     3.2479     0.0159
 18 C      6.3076     6.0000    -0.3076     3.8097     3.8085     0.0011
 19 C      6.2801     6.0000    -0.2801     3.8115     3.8104     0.0011
 20 H      0.8432     1.0000     0.1568     0.9477     0.9466     0.0011
 21 H      0.8407     1.0000     0.1593     0.9739     0.9733     0.0006
 22 H      0.8438     1.0000     0.1562     0.9491     0.9484     0.0008
 23 H      0.8372     1.0000     0.1628     0.9431     0.9418     0.0012
 24 H      0.8313     1.0000     0.1687     0.9655     0.9652     0.0002
 25 H      0.8347     1.0000     0.1653     0.9442     0.9437     0.0006
 26 H      0.8354     1.0000     0.1646     0.9638     0.9633     0.0005
 27 H      0.8360     1.0000     0.1640     0.9653     0.9643     0.0010
 28 H      0.8492     1.0000     0.1508     0.9645     0.9636     0.0010
 29 H      0.8430     1.0000     0.1570     0.9681     0.9674     0.0006
 30 H      0.8449     1.0000     0.1551     0.9690     0.9673     0.0016
 31 H      0.8071     1.0000     0.1929     0.9601     0.9559     0.0042
 32 H      0.8560     1.0000     0.1440     0.9669     0.9661     0.0009
 33 H      0.8496     1.0000     0.1504     0.9688     0.9669     0.0019
 34 P     13.3419    15.0000     1.6581     4.8740     4.8491     0.0249
 35 O      8.8167     8.0000    -0.8167     1.8655     1.8627     0.0028
 36 O      8.5537     8.0000    -0.5537     1.8841     1.8840     0.0001
 37 O      8.5472     8.0000    -0.5472     1.8882     1.8812     0.0070
 38 C      6.0257     6.0000    -0.0257     3.7788     3.7789    -0.0000
 39 C      6.0281     6.0000    -0.0281     3.8270     3.8268     0.0002
 40 C      6.3988     6.0000    -0.3988     3.8841     3.8840     0.0001
 41 H      0.8513     1.0000     0.1487     0.9509     0.9508     0.0002
 42 H      0.8494     1.0000     0.1506     0.9453     0.9453     0.0000
 43 H      0.8614     1.0000     0.1386     0.9573     0.9573    -0.0000
 44 H      0.8483     1.0000     0.1517     0.9548     0.9548    -0.0000
 45 H      0.8572     1.0000     0.1428     0.9534     0.9534     0.0000
 46 C      6.3884     6.0000    -0.3884     3.8548     3.8541     0.0007
 47 H      0.8621     1.0000     0.1379     0.9666     0.9665     0.0001
 48 H      0.8552     1.0000     0.1448     0.9464     0.9459     0.0005
 49 H      0.8654     1.0000     0.1346     0.9602     0.9602     0.0000
 50 H      0.8595     1.0000     0.1405     0.9484     0.9488    -0.0004
 51 H      0.8488     1.0000     0.1512     0.9554     0.9554     0.0000

  Mayer bond orders larger than 0.100000
B(  0-C ,  1-C ) :   1.3476 B(  0-C ,  3-C ) :   1.3396 B(  0-C , 27-H ) :   0.9740 
B(  1-C ,  2-C ) :   1.3089 B(  1-C , 28-H ) :   0.9876 B(  2-C ,  6-C ) :   1.2225 
B(  2-C , 26-H ) :   0.9660 B(  3-C ,  4-C ) :   1.2083 B(  3-C ,  5-O ) :   0.8713 
B(  4-C ,  6-C ) :   1.2863 B(  4-C ,  9-C ) :   1.2227 B(  4-C , 11-N ) :   0.1121 
B(  5-O , 15-C ) :   0.9251 B(  6-C ,  7-C ) :   1.2586 B(  7-C ,  8-C ) :   1.3287 
B(  7-C , 29-H ) :   0.9756 B(  8-C , 10-C ) :   1.2005 B(  8-C , 30-H ) :   0.9826 
B(  9-C , 10-C ) :   1.2554 B(  9-C , 11-N ) :   0.9848 B( 10-C , 14-C ) :   1.2994 
B( 11-N , 12-C ) :   1.0952 B( 11-N , 34-P ) :   0.8021 B( 12-C , 13-C ) :   1.5742 
B( 12-C , 31-H ) :   0.9457 B( 13-C , 14-C ) :   1.2277 B( 13-C , 32-H ) :   0.9743 
B( 14-C , 33-H ) :   0.9705 B( 15-C , 16-O ) :   1.8509 B( 15-C , 17-N ) :   1.3763 
B( 17-N , 18-C ) :   0.9257 B( 17-N , 19-C ) :   0.9286 B( 18-C , 23-H ) :   0.9626 
B( 18-C , 24-H ) :   0.9608 B( 18-C , 25-H ) :   0.9557 B( 19-C , 20-H ) :   0.9626 
B( 19-C , 21-H ) :   0.9635 B( 19-C , 22-H ) :   0.9608 B( 34-P , 35-O ) :   1.7253 
B( 34-P , 36-O ) :   1.0528 B( 34-P , 37-O ) :   1.0246 B( 36-O , 38-C ) :   0.8392 
B( 37-O , 39-C ) :   0.8693 B( 38-C , 40-C ) :   0.9932 B( 38-C , 41-H ) :   0.9533 
B( 38-C , 42-H ) :   0.9681 B( 39-C , 46-C ) :   0.9877 B( 39-C , 47-H ) :   0.9691 
B( 39-C , 48-H ) :   0.9620 B( 40-C , 43-H ) :   0.9728 B( 40-C , 44-H ) :   0.9675 
B( 40-C , 45-H ) :   0.9739 B( 46-C , 49-H ) :   0.9725 B( 46-C , 50-H ) :   0.9686 
B( 46-C , 51-H ) :   0.9662 


-------
TIMINGS
-------

Total TD-DFT gradient time  ....      974.659 sec

Fock matrix formation       ....     322.729 sec  ( 33.1%)
  Coulomb formation         ....     308.851 sec  ( 95.7% of F)
  XC integration            ....      13.878 sec  (  4.3% of F)
Z-vector equation           ....     361.387 sec  ( 37.1%)
Densities                   ....       0.001 sec  (  0.0%)
One electron gradient       ....       2.921 sec  (  0.3%)
Two electron gradient       ....       0.000 sec  (  0.0%)
RI-J Coulomb gradient       ....      17.991 sec  (  1.8%)
COSX gradient               ....      60.969 sec  (  6.3%)
XC gradient                 ....     117.090 sec  ( 12.0%)
CPCM gradient               ....      17.987 sec  (  1.8%)
   A-Matrix (El+Nuc)        ....       0.346 sec  (  0.0%)
   Potential                ....      17.641 sec  (  1.8%)

Maximum memory used throughout the entire CIS-calculation: 586.0 MB
=> NOW LEAVING ORCA_CIS

-------------------------   --------------------
FINAL SINGLE POINT ENERGY     -1603.281505315080
-------------------------   --------------------

                                *** OPTIMIZATION RUN DONE ***


------------------------------------------------------------------------------
                              ORCA PROPERTY CALCULATIONS
------------------------------------------------------------------------------

GBWName                                 ... hbq-dcp-es.gbw
Number of atoms                         ...     52
Number of basis functions               ...    822
Max core memory                         ...   1024 MB

Electric properties:
Dipole moment                           ... YES
Quadrupole moment                       ...  NO
Static polarizability (Dipole/Dipole)   ...  NO
Static polarizability (Dipole/Quad.)    ...  NO
Static polarizability (Quad./Quad.)     ...  NO
Static polarizability (Velocity)        ...  NO

Atomic electric properties:
Dipole moment                           ...  NO
Quadrupole moment                       ...  NO
Static polarizability                   ...  NO

Choice of electric origin               ... Center of mass
Position of electric origin             ...    -3.116623     3.219121     2.035059

General magnetic properties:
Magnetizability                         ...  NO

EPR properties:
g-Tensor (aka g-matrix)                 ...  NO
Zero-Field splitting spin-orbit         ...  NO
Zero-field splitting spin-spin          ...  NO
Hyperfine couplings                     ...  NO (   0 nuclei)
Quadrupole couplings                    ...  NO (   0 nuclei)
Contact density                         ...  NO (   0 nuclei)

NMR properties:
Chemical shifts                         ...  NO (   0 nuclei)
Spin-rotation constants                 ...  NO (   0 nuclei)
Spin-spin couplings                     ...  NO (   0 nuclei,    0 pairs)

Choice of magnetic origin               ... GIAO
Position of magnetic origin             ...     0.000000     0.000000     0.000000

Properties with geometric perturbations:
SCF Hessian                             ...  NO
IR spectrum                             ...  NO
VCD spectrum                            ...  NO
X-ray spectroscopy properties:
SCF XES/XAS/RIXS spectra                ...  NO


-------------
DIPOLE MOMENT
-------------

Method             : SCF
Type of density    : Electron Density
Multiplicity       :   1
Irrep              :   0
Energy             : -1603.3825394353646061 Eh
Relativity type    : 
Basis              : AO
                                X                 Y                 Z
Electronic contribution:     -6.355027317     -14.439763449       6.713212117
Nuclear contribution   :      9.060893164      15.347417685      -5.759558181
                        -----------------------------------------
Total Dipole Moment    :      2.705865847       0.907654236       0.953653936
                        -----------------------------------------
Magnitude (a.u.)       :      3.009153041
Magnitude (Debye)      :      7.648659181



--------------------
Rotational spectrum 
--------------------
 
Rotational constants in cm-1:             0.007229             0.006222             0.004738 
Rotational constants in MHz :           216.716114           186.534357           142.028047 

Dipole components along the rotational axes: 
x,y,z [a.u.] :     1.247312     2.230060    -1.589354 
x,y,z [Debye]:     3.170414     5.668363    -4.039817 

 

-------------
DIPOLE MOMENT
-------------

Method             : TDA/CIS
Type of density    : Electron Density
Level              : Relaxed density
State              :   1
Multiplicity       :   1
Irrep              :   0
Energy             :     0.0000000000000000 Eh
Relativity type    : 
Basis              : AO
                                X                 Y                 Z
Electronic contribution:     -9.213687347     -15.722430075       6.393997900
Nuclear contribution   :      9.060893164      15.347417685      -5.759558181
                        -----------------------------------------
Total Dipole Moment    :     -0.152794183      -0.375012390       0.634439719
                        -----------------------------------------
Magnitude (a.u.)       :      0.752658032
Magnitude (Debye)      :      1.913104680



--------------------
Rotational spectrum 
--------------------
 
Rotational constants in cm-1:             0.007229             0.006222             0.004738 
Rotational constants in MHz :           216.716114           186.534357           142.028047 

Dipole components along the rotational axes: 
x,y,z [a.u.] :    -0.646599     0.370396     0.105880 
x,y,z [Debye]:    -1.643524     0.941472     0.269127 

 

Dipole moment calculation done in   0.3 sec 

Maximum memory used throughout the entire PROP-calculation: 136.9 MB

--------------------------------
SUGGESTED CITATIONS FOR THIS RUN
--------------------------------

Below you find a list of papers that are relevant to this ORCA run
We neither can nor want to force you to cite these papers, but we appreciate if you do
You receive ORCA, which is the product of decades of hard work by many enthusiastic individuals, for free
The only thing we kindly ask in return is that you cite our papers,
We deeply appreciate it, if you show your appreciation for ORCA by not just citing the generic ORCA reference.

Please note that relegating all ORCA citations to the supporting information does *not* help us.
SI sections are not indexed - citations you put there will not count into any citation statistics
But we need these citations in order to attract the funding resources that allow us to do what we are doing

Therefore, if you are a happy ORCA user, please consider citing a few of the papers listed below in the main body of your paper

In addition to the list printed below, the program has created the file hbq-dcp-es.bibtex that contains the list in bibtex format
You can import this file easily into all common literature databanks and citation aid programs


List of essential papers. We consider these as the minimum necessary citations

  1. Neese,F.
     Software update: the ORCA program system, version 5.0
     WIRES Comput. Molec. Sci., 2022 12(1)e1606
     doi.org/10.1002/wcms.1606

List of papers to cite with high priority. The work reported in these papers was absolutely
necessary for this run to complete.
Our perspective: the developers of density functionals and basis sets usually get cited in chemistry papers
Good! But without the algorithms to do something with them, the functionals or basis sets would not do anything.
Hence, in our opinion, the algorithm design and method developments papers are equally worthy of getting cited

  1. Neese,F.; Olbrich,G.
     Efficient use of the resolution of the identity approximation in time-dependent density functional calculations with hybrid density functionals
     Chem. Phys. Lett., 2002 362 170-178
     doi.org/10.1016/s0009-2614(02)01053-9
  2. Neese,F.
     An improvement of the resolution of the identity approximation for the formation of the Coulomb matrix
     J. Comp. Chem., 2003 24(14)1740-1747
     doi.org/10.1002/jcc.10318
  3. Neese,F.; Wennmohs,F.; Hansen,A.; Becker,U.
     Efficient, approximate and parallel Hartree-Fock and hybrid DFT calculations. A 'chain-of-spheres' algorithm for the Hartree-Fock exchange
     Chem. Phys., 2009 356(1-3)98-109
     doi.org/10.1016/j.chemphys.2008.10.036
  4. Petrenko,T.; Kossmann,S.; Neese,F.
     Efficient time-dependent density functional theory approximations for hybrid density functionals: Analytical gradients and parallelization
     J. Chem. Phys., 2011 134 054116
     doi.org/10.1063/1.3533441
  5. Garcia-Rates,M.; Neese,F.
     Effect of the Solute Cavity on the Solvation Energy and its Derivatives within the Framework of the Gaussian Charge Scheme
     J. Comput. Chem., 2020 41 922-939
     doi.org/10.1002/jcc.26139
  6. Helmich-Paris,B.; de Souza,B.; Neese,F.; Izsák,R.
     An improved chain of spheres for exchange algorithm
     J. Chem. Phys., 2021 155 104109
     doi.org/doi: 10.1063/5.0058766.
  7. Neese,F.
     The SHARK Integral Generation and Digestion System
     J. Comp. Chem., 2022  1-16
     doi.org/10.1002/jcc.26942

List of suggested additional citations. These are papers that are important in the 'surrounding' of 
of this run, or papers that preceded the highly important papers. If you like your results we are grateful for a citation.

  1. Izsak,R.; Neese,F.
     An overlap fitted chain of spheres exchange method
     J. Chem. Phys., 2011 135 144105
     doi.org/10.1063/1.3646921
  2. Izsak,R.; Hansen,A.; Neese,F.
     The resolution of identity and chain of spheres approximations for the LPNO-CCSD singles Fock term
     Molec. Phys., 2012 110 2413-2417
     doi.org/10.1080/00268976.2012.687466
  3. Neese,F.
     The ORCA program system
     WIRES Comput. Molec. Sci., 2012 2(1)73-78
     doi.org/10.1002/wcms.81
  4. Izsak,R.; Neese,F.; Klopper,W.
     Robust fitting techniques in the chain of spheres approximation to the Fock exchange: The role of the complementary space
     J. Chem. Phys., 2013 139 
     doi.org/10.1063/1.4819264
  5. Neese,F.
     Software update: the ORCA program system, version 4.0
     WIRES Comput. Molec. Sci., 2018 8(1)1-6
     doi.org/10.1002/wcms.1327
  6. Neese,F.; Wennmohs,F.; Becker,U.; Riplinger,C.
     The ORCA quantum chemistry program package
     J. Chem. Phys., 2020 152 Art. No. L224108
     doi.org/10.1063/5.0004608

List of optional additional citations

  1. Neese,F.
     Approximate second-order SCF convergence for spin unrestricted wavefunctions
     Chem. Phys. Lett., 2000 325(1-3)93-98
     doi.org/10.1016/s0009-2614(00)00662-x

Timings for individual modules:

Sum of individual times          ...    90525.951 sec (=1508.766 min)
Startup calculation              ...      450.035 sec (=   7.501 min)   0.5 %
SCF iterations                   ...    26154.092 sec (= 435.902 min)  28.9 %
Property integrals               ...       46.074 sec (=   0.768 min)   0.1 %
Property calculations            ...        0.424 sec (=   0.007 min)   0.0 %
CIS module                       ...    63872.566 sec (=1064.543 min)  70.6 %
Geometry relaxation              ...        2.761 sec (=   0.046 min)   0.0 %
                             ****ORCA TERMINATED NORMALLY****
TOTAL RUN TIME: 1 days 1 hours 8 minutes 54 seconds 932 msec
