
                                 *****************
                                 * O   R   C   A *
                                 *****************

                                            #,                                       
                                            ###                                      
                                            ####                                     
                                            #####                                    
                                            ######                                   
                                           ########,                                 
                                     ,,################,,,,,                         
                               ,,#################################,,                 
                          ,,##########################################,,             
                       ,#########################################, ''#####,          
                    ,#############################################,,   '####,        
                  ,##################################################,,,,####,       
                ,###########''''           ''''###############################       
              ,#####''   ,,,,##########,,,,          '''####'''          '####       
            ,##' ,,,,###########################,,,                        '##       
           ' ,,###''''                  '''############,,,                           
         ,,##''                                '''############,,,,        ,,,,,,###''
      ,#''                                            '''#######################'''  
     '                                                          ''''####''''         
             ,#######,   #######,   ,#######,      ##                                
            ,#'     '#,  ##    ##  ,#'     '#,    #''#        ,####,   ,####,        
            ##       ##  ##   ,#'  ##            #'  '#       #'       #'  '#        
            ##       ##  #######   ##           ,######,      #####,   #    #        
            '#,     ,#'  ##    ##  '#,     ,#' ,#      #,     #,   #   #,  ,#        
             '#######'   ##     ##  '#######'  #'      '#     '####' # '####'        



                #########################################################
                #                        -***-                          #
                #          Department of theory and spectroscopy        #
                #                                                       #
                #                      Frank Neese                      #
                #                                                       #
                #     Directorship, Architecture, Infrastructure        #
                #                    SHARK, DRIVERS                     #
                #        Core code/Algorithms in most modules           #
                #                                                       #
                #        Max Planck Institute fuer Kohlenforschung      #
                #                Kaiser Wilhelm Platz 1                 #
                #                 D-45470 Muelheim/Ruhr                 #
                #                      Germany                          #
                #                                                       #
                #                  All rights reserved                  #
                #                        -***-                          #
                #########################################################


                         Program Version 6.0.1  -  RELEASE   -


 With contributions from (in alphabetic order):
[Max-Planck-Institut fuer Kohlenforschung]                               
  Daniel Aravena         : Magnetic Suceptibility                        
  Michael Atanasov       : Ab Initio Ligand Field Theory (pilot matlab implementation)
  Alexander A. Auer      : GIAO ZORA, VPT2 properties, NMR spectrum      
  Ute Becker             : All parallelization in ORCA, NUMFREQ, NUMCALC 
  Giovanni Bistoni       : ED, misc. LED, open-shell LED, HFLD           
  Martin Brehm           : Molecular dynamics                            
  Dmytro Bykov           : pre 5.0 version of the SCF Hessian            
  Marcos Casanova-Páez   : Triplet and SCS-CIS(D). UHF-(DLPNO)-IP/EA/STEOM-CCSD. UHF-CVS-IP/STEOM-CCSD   
  Vijay G. Chilkuri      : MRCI spin determinant printing, contributions to CSF-ICE 
  Pauline Colinet        : FMM embedding                                 
  Dipayan Datta          : RHF DLPNO-CCSD density                        
  Achintya Kumar Dutta   : EOM-CC, STEOM-CC                              
  Nicolas Foglia         : Exact transition moments, OPA infrastructure, MCD improvements    
  Dmitry Ganyushin       : Spin-Orbit,Spin-Spin,Magnetic field MRCI      
  Miquel Garcia-Rates    : C-PCM and meta-GGA Hessian, CCSD/C-PCM, Gaussian charge scheme 
  Tiago L. C. Gouveia    : GS-ROHF, GS-ROCIS                             
  Yang Guo               : DLPNO-NEVPT2, F12-NEVPT2, CIM, IAO-localization        
  Andreas Hansen         : Spin unrestricted coupled pair/coupled cluster methods 
  Ingolf Harden          : AUTO-CI MPn and infrastructure                
  Benjamin Helmich-Paris : MC-RPA, TRAH-(SCF,CASSCF), AVAS, COSX integrals, SCF dyn. polar. 
  Lee Huntington         : MR-EOM, pCC                                   
  Robert Izsak           : Overlap fitted RIJCOSX, COSX-SCS-MP3, EOM     
  Riya Kayal             : Wick's Theorem for AUTO-CI, AUTO-CI UHF-CCSDT 
  Emily Kempfer          : AUTO-CI, RHF CISDT and CCSDT                  
  Christian Kollmar      : KDIIS, OOCD, Brueckner-CCSD(T), CCSD density, CASPT2, CASPT2-K, improved NEVPT2 
  Axel Koslowski         : Symmetry handling                             
  Simone Kossmann        : meta-GGA functionals, TD-DFT gradient, OOMP2, (MP2 Hessian; deprecated post 5.0) 
  Lucas Lang             : DCDCAS                                        
  Marvin Lechner         : AUTO-CI (C++ implementation), FIC-MRCC        
  Spencer Leger          : CASSCF response                               
  Dagmar Lenk            : GEPOL surface, SMD, ORCA-2-JSON               
  Dimitrios Liakos       : Extrapolation schemes; Compound Job, initial MDCI parallelization 
  Dimitrios Manganas     : Further ROCIS development; embedding schemes. LFT, Crystal Embedding 
  Dimitrios Pantazis     : SARC Basis sets                               
  Anastasios Papadopoulos: AUTO-CI, single reference methods and gradients 
  Taras Petrenko         : pre 6.0 DFT Hessian and TD-DFT gradient, (ASA, deprecated), ECA, 1-Electron XAS/XES, NRVS 
  Peter Pinski           : DLPNO-MP2, DLPNO-MP2 Gradient                 
  Christoph Reimann      : Effective Core Potentials                     
  Marius Retegan         : Local ZFS, SOC                                
  Christoph Riplinger    : Optimizer, TS searches, QM/MM, DLPNO-CCSD(T), (RO)-DLPNO pert. Triples 
  Michael Roemelt        : Original ROCIS implementation                 
  Masaaki Saitow         : Open-shell DLPNO-CCSD energy and density      
  Barbara Sandhoefer     : DKH picture change effects                    
  Kantharuban Sivalingam : CASSCF convergence/infrastructure, NEVPT2 and variants, FIC-MRCI 
  Bernardo de Souza      : ESD, SOC TD-DFT                               
  Georgi L. Stoychev     : AutoAux, RI-MP2 NMR, DLPNO-MP2 response, X2C  
  Van Anh Tran           : RI-MP2 g-tensors                              
  Willem Van den Heuvel  : Paramagnetic NMR                              
  Zikuan Wang            : NOTCH, Electric field optimization            
  Frank Wennmohs         : Technical directorship and infrastructure     
  Hang Xu                : AUTO-CI-Response properties                   
                                                                         
[FACCTs GmbH]                                                            
  Markus Bursch, Miquel Garcia-Rates, Christoph Riplinger, Bernardo de Souza, Georgi L. Stoychev 
                                                                 
  APM, Basis sets (HGBS, AHGBS, def-TZVP (Ac-Lr), def2-XVPD (La-Lu)), CI-OPT, improved COSX, DLPNO-Multilevel,           
  DOCKER, DRACO, updates on ESD, GOAT, IRC, LR-CPCM, MBIS, meta-GGA TD-DFT gradient, ML-optimized integration grids, 
  MM, NACMEs, nearIR, NEB, NEB-TS, NL-DFT gradient (VV10), 2- and 3-layer-ONIOM, interface openCOSMO-RS, QMMM,   
  Crystal-QMMM, SF, symmetry and pop. for TD-DFT, r2SCAN hybrids, SOLVATOR                                   
                                                                         
[Other institutions]                                                     
  V. Asgeirsson          : NEB                                           
  Christoph Bannwarth    : sTDA-DFT, sTD-DFT, PBEh-3c, B97-3c, D3        
  Sebastian Ehlert       : rSCAN, r2SCAN, r2SCAN-3c, D4, dhf basis sets  
  Marvin Friede          : D4 for Fr, Ra, Ac-Lr                          
  Lars Goerigk           : TD-DFT with DH, B97 family of functionals     
  Stefan Grimme          : VdW corrections, initial TS optimization, DFT functionals, gCP, sTDA/sTD-DF 
  Waldemar Hujo          : DFT-NL                                        
  H. Jonsson             : NEB                                           
  Holger Kruse           : gCP                                           
  Marcel Mueller         : wB97X-3c, vDZP basis set                      
  Hagen Neugebauer       : wr2SCAN                                       
  Tobias Risthaus        : range-separated hybrid DFT                    
  Lukas Wittmann         : regularized MP2, r2SCAN double-hybrids, wr2SCAN        
                                                                         
We gratefully acknowledge several colleagues who have allowed us to      
interface, adapt or use parts of their codes:                            
  Ed Valeev, F. Pavosevic, A. Kumar             : LibInt (2-el integral package), F12 methods 
  Garnet Chan, S. Sharma, J. Yang, R. Olivares  : DMRG                   
  Ulf Ekstrom                                   : XCFun DFT Library      
  Mihaly Kallay                                 : mrcc  (arbitrary order and MRCC methods)
  Frank Weinhold                                : gennbo (NPA and NBO analysis)           
  Simon Mueller                                 : openCOSMO-RS                            
  Christopher J. Cramer and Donald G. Truhlar   : smd solvation model                     
  S Lehtola, MJT Oliveira, MAL Marques          : LibXC Library                           
  Liviu Ungur et al                             : ANISO software                          


 Your calculation uses the libint2 library for the computation of 2-el integrals
 For citations please refer to: http://libint.valeyev.net

 Your ORCA version has been built with support for libXC version: 6.2.2
 For citations please refer to: https://libxc.gitlab.io

 This ORCA versions uses:
   CBLAS   interface :  Fast vector & matrix operations
   LAPACKE interface :  Fast linear algebra routines
   SCALAPACK package :  Parallel linear algebra routines
   Shared memory     :  Shared parallel matrices
   BLAS/LAPACK       :  OpenBLAS 0.3.27  USE64BITINT DYNAMIC_ARCH NO_AFFINITY Cooperlake SINGLE_THREADED
        Core in use  :  Cooperlake
   Copyright (c) 2011-2014, The OpenBLAS Project


Warning: RI is on but no J-basis has been assigned. Assigning Def2/J (nothing to worry about!)
================================================================================

----- Orbital basis set information -----
Your calculation utilizes the basis: 6-311G*
   H, Li - Ne  : R. Krishnan, J. S. Binkley, R. Seeger and J. A. Pople, J. Chem. Phys. 72, 650 (1980).
   Na - Ar     : A. D. McLean and G. S. Chandler J. Chem. Phys. 72, 5639, (1980).
   K  - Ca     : J.-P. Blaudeau, M. P. McGrath, L. A. Curtiss and L. Radom, J. Chem. Phys. 107, 5016 (1997).
   Ga - Kr     : L. A. Curtiss, M. P. McGrath, J.-P. Blandeau, N. E. Davis, R. C. Binning and L. Radom, J. Chem. Phys. 103, 6104 (1995).
   Pol./Diff.
   H, Li - Cl  : T. Clark, J. Chandrasekhar and P. v. R. Schleyer, J. Comp. Chem. 4, 294 (1983).
   H - Ne      : M. J. Frisch, J. A. Pople and J. S. Binkley, J. Chem. Phys. 80, 3265 (1984).

----- AuxJ basis set information -----
Your calculation utilizes the auxiliary basis: def2/J
   F. Weigend, Phys. Chem. Chem. Phys. 8, 1057 (2006).

================================================================================
                                        WARNINGS
                       Please study these warnings very carefully!
================================================================================

INFO   : Checking CIS options ...

WARNING: (CIS/TDDFT): Analytic excited state gradients requested
  ===> : turning on equilibrium dielectric conditions.

WARNING: Analytical Frequencies for this method not available!
  ===> : Switching to Numerical Frequencies!

WARNING: Geometry Optimization
  ===> : Switching off AutoStart
         For restart on a previous wavefunction, please use MOREAD

WARNING: CIS/ROCIS methods need fully converged wavefunctions
  ===> : Setting SCFConvForced true
         You can overwrite this default with %scf ConvForced false 


================================================================================
                                       INPUT FILE
================================================================================
NAME = 1globalminimum.inp
|  1> ! B3LYP/G OPT FREQ 6-311G* CPCM(Water)
|  2> 
|  3> %tddft
|  4>     NRoots 3
|  5>     IRoot 1
|  6> end 
|  7> 
|  8> * xyz 1 1 
|  9> C  -3.50701099056994625158 -0.66402153735253344191 0.54410985724832461319
| 10> C  -3.93431976367768720948 -1.54202165279254632679 1.54114721691058398356
| 11> C  -3.21002372410935832292 -1.69475011744151782267 2.69728135528114698616
| 12> C  -2.40629333727950678323 0.13652996144257081856 0.75166088939422737170
| 13> C  -1.70484451832374306335 0.08133906855102662758 1.98168876313034414416
| 14> O  -1.81608986251973880677 0.90141496560342393440 -0.22528870280824195294
| 15> C  -2.06438630766602226885 -0.91981935107273837815 2.92209396695423251344
| 16> C  -1.21639044740220492180 -1.16809679494234730512 4.04097369266946238042
| 17> C  -0.02755882961886599314 -0.53459894344716940573 4.17318170368135987758
| 18> C  -0.58823888147829306305 0.91416299525004585114 2.27690576132871003168
| 19> C  0.32980905211285482803 0.52235123798827265418 3.28820192658940646524
| 20> N  -0.37357809178968492958 2.09249092814017245701 1.63093295870169407991
| 21> C  0.80389559306284841256 2.72489595027298348029 1.72136743769542110982
| 22> C  1.81205592776393897836 2.26811602497797881739 2.54354875818482950578
| 23> C  1.54158051918924754453 1.21364654703931695856 3.39749066025624868459
| 24> C  -2.47472429172406416242 1.28810570027226756196 -1.37129285100064435277
| 25> O  -3.68460931485753961923 1.43872512257837925631 -1.42292981425149411834
| 26> N  -1.62944745114667544073 1.50083184870944252864 -2.37493887225482502856
| 27> C  -2.11308845336685768856 2.06321114760811807898 -3.61733026485419495444
| 28> C  -0.19490765238087681688 1.33110340211321287462 -2.27850685886379222822
| 29> H  0.28335953747928543933 2.28236874900295871882 -2.04363574154099270075
| 30> H  0.16999134959419817670 0.97153803856759357593 -3.23879175046142453454
| 31> H  0.04878667435817531095 0.60616032088008342527 -1.50752818777693309293
| 32> H  -3.18712447964220446650 2.21955700072083761398 -3.54399397965732010363
| 33> H  -1.90670548423080110645 1.37687377163062985019 -4.43882929157152616995
| 34> H  -1.61780101896727868116 3.01417059800973241579 -3.81084228030050997660
| 35> H  -3.50118456807429900834 -2.42789397658398753421 3.43208958579892975393
| 36> H  -4.04049963239409137827 -0.61132403401893464778 -0.39133646773481972625
| 37> H  -4.81795867989701775969 -2.13459932977634148088 1.36616180665226627511
| 38> H  -1.52123975106570608062 -1.92736083896015464312 4.74345851036571009018
| 39> H  0.66113534549936292528 -0.79307816021889454561 4.96093432820362156832
| 40> H  0.89569550855175128490 3.63190555525484359833 1.14315052396622607311
| 41> H  2.75953694501800583794 2.77984399299300921626 2.56609752564532334063
| 42> H  2.25212299842037122488 0.91656039317164683666 4.15342659560530957918
| 43> P  -1.72715794172276870810 3.13410952851499491345 1.17303582891515545406
| 44> O  -3.05089545138250795020 2.60558480349249510510 1.50735853924484253241
| 45> O  -1.29105068596674077419 3.50899644305359759144 -0.28471270031828538327
| 46> O  -1.36811912461909557237 4.44862370900382764205 1.99058344730407332790
| 47> C  -1.60677200168761125099 4.77867759752105669691 -0.88649211762185153862
| 48> C  -2.00226131229689441327 4.72215473018561127105 3.24411613368858509077
| 49> C  -3.09998485476859464427 5.03012075990153562088 -0.92611248599732420850
| 50> H  -1.19313044707328375083 4.70835168942339077347 -1.89364809952942181326
| 51> H  -1.10133707967677874073 5.56971338303739127440 -0.32836244807097864085
| 52> H  -3.61374769615612212448 4.20294960258987959634 -1.41371456197692269008
| 53> H  -3.30813016064022447082 5.94744966354299808842 -1.46829486520473695421
| 54> H  -3.49348548930192359663 5.11637998209666911009 0.08609429208147854895
| 55> C  -1.36914708395996487234 3.93390639626529692308 4.37485833467532359009
| 56> H  -3.06661354427629850861 4.48234944450373884450 3.16086347839114845115
| 57> H  -1.87958689094275155362 5.79661820630432611523 3.39094034179200676249
| 58> H  -1.80186382432120373309 4.25408042819747045371 5.31796400516046219309
| 59> H  -0.29630307773080166722 4.10537598981570717172 4.40206862219224159816
| 60> H  -1.56666723731728541047 2.87127906914285757622 4.24564545723463560023
| 61> *
| 62> 
| 63>                          ****END OF INPUT****
================================================================================

                       *****************************
                       * Geometry Optimization Run *
                       *****************************

Geometry optimization settings:
Update method            Update   .... BFGS
Choice of coordinates    CoordSys .... (2022) Redundant Internals
Initial Hessian          InHess   .... Almloef's Model
Max. no of cycles        MaxIter  .... 156

Convergence Tolerances:
Energy Change            TolE     ....  5.0000e-06 Eh
Max. Gradient            TolMAXG  ....  3.0000e-04 Eh/bohr
RMS Gradient             TolRMSG  ....  1.0000e-04 Eh/bohr
Max. Displacement        TolMAXD  ....  4.0000e-03 bohr
RMS Displacement         TolRMSD  ....  2.0000e-03 bohr
Strict Convergence                .... False

------------------------------------------------------------------------------
                        ORCA OPTIMIZATION COORDINATE SETUP
------------------------------------------------------------------------------

The optimization will be done in redundant internal coordinates (2022)
Making redundant internal coordinates   ...  (2022 redundants) done
Evaluating the initial hessian          ...  (Almloef) done
Evaluating the coordinates              ...  done
Calculating the B-matrix                .... done
Calculating the G-matrix                .... done
Diagonalizing the G-matrix              .... done
Small eigenvalue found = 1.722e-03
Small eigenvalue found = 4.449e-03
Small eigenvalue found = 5.173e-03
Small eigenvalue found = 7.683e-03
Small eigenvalue found = 1.148e-02
Small eigenvalue found = 1.220e-02
Small eigenvalue found = 1.775e-02
Small eigenvalue found = 2.216e-02
Small eigenvalue found = 2.450e-02
Small eigenvalue found = 2.734e-02
The first mode is                       ....  109
The number of degrees of freedom        ....  150

    -----------------------------------------------------------------
                    Redundant Internal Coordinates


    -----------------------------------------------------------------
         Definition                    Initial Value    Approx d2E/dq
    -----------------------------------------------------------------
      1. B(C   1,C   0)                  1.3956         0.612186   
      2. B(C   2,C   1)                  1.3728         0.665552   
      3. B(C   3,C   0)                  1.3768         0.655875   
      4. B(C   4,C   3)                  1.4171         0.565684   
      5. B(O   5,C   3)                  1.3740         0.593520   
      6. B(C   6,C   4)                  1.4198         0.559923   
      7. B(C   6,C   2)                  1.4013         0.599468   
      8. B(C   7,C   6)                  1.4257         0.547994   
      9. B(C   8,C   7)                  1.3536         0.714298   
     10. B(C   9,C   4)                  1.4239         0.551590   
     11. B(C  10,C   9)                  1.4209         0.557684   
     12. B(C  10,C   8)                  1.4241         0.551243   
     13. B(N  11,C   9)                  1.3608         0.622929   
     14. B(C  12,N  11)                  1.3396         0.673391   
     15. B(C  13,C  12)                  1.3788         0.651102   
     16. B(C  14,C  13)                  1.3836         0.639719   
     17. B(C  14,C  10)                  1.3994         0.603666   
     18. B(C  15,O   5)                  1.3772         0.586559   
     19. B(O  16,C  15)                  1.2203         1.043742   
     20. B(N  17,C  15)                  1.3293         0.699377   
     21. B(C  18,N  17)                  1.4470         0.453928   
     22. B(C  19,N  17)                  1.4478         0.452608   
     23. B(H  20,C  19)                  1.0903         0.359670   
     24. B(H  21,C  19)                  1.0884         0.362241   
     25. B(H  22,C  19)                  1.0860         0.365467   
     26. B(H  23,C  18)                  1.0878         0.362981   
     27. B(H  24,C  18)                  1.0902         0.359849   
     28. B(H  25,C  18)                  1.0895         0.360719   
     29. B(H  26,C   2)                  1.0781         0.376244   
     30. B(H  27,C   0)                  1.0782         0.376097   
     31. B(H  28,C   1)                  1.0782         0.376008   
     32. B(H  29,C   7)                  1.0784         0.375807   
     33. B(H  30,C   8)                  1.0778         0.376598   
     34. B(H  31,C  12)                  1.0796         0.374193   
     35. B(H  32,C  13)                  1.0771         0.377608   
     36. B(H  33,C  14)                  1.0792         0.374740   
     37. B(P  34,N  11)                  1.7683         0.468647   
     38. B(O  35,P  34)                  1.4640         1.433030   
     39. B(O  36,P  34)                  1.5671         0.981384   
     40. B(O  37,P  34)                  1.5891         0.905143   
     41. B(C  38,O  36)                  1.4401         0.465514   
     42. B(C  39,O  37)                  1.4312         0.481019   
     43. B(C  40,C  38)                  1.5148         0.395096   
     44. B(H  41,H  25)                  2.5935         0.000275   
     45. B(H  41,C  38)                  1.0911         0.358703   
     46. B(H  42,C  38)                  1.0921         0.357316   
     47. B(H  43,C  40)                  1.0890         0.361426   
     48. B(H  44,C  40)                  1.0857         0.365812   
     49. B(H  45,C  40)                  1.0894         0.360862   
     50. B(C  46,C  39)                  1.5168         0.392106   
     51. B(H  47,C  39)                  1.0942         0.354581   
     52. B(H  48,C  39)                  1.0914         0.358298   
     53. B(H  49,C  46)                  1.0859         0.365550   
     54. B(H  50,C  46)                  1.0868         0.364357   
     55. B(H  51,C  46)                  1.0885         0.362056   
     56. A(C   1,C   0,C   3)          120.1933         0.437485   
     57. A(C   1,C   0,H  27)          119.9411         0.354754   
     58. A(C   3,C   0,H  27)          119.8656         0.358933   
     59. A(C   0,C   1,C   2)          120.6723         0.438643   
     60. A(C   0,C   1,H  28)          118.7346         0.354740   
     61. A(C   2,C   1,H  28)          120.5253         0.359815   
     62. A(C   1,C   2,H  26)          120.4768         0.359853   
     63. A(C   6,C   2,H  26)          119.1792         0.353518   
     64. A(C   1,C   2,C   6)          120.3277         0.436985   
     65. A(C   4,C   3,O   5)          115.2292         0.420903   
     66. A(C   0,C   3,O   5)          124.0511         0.432204   
     67. A(C   0,C   3,C   4)          120.2620         0.431310   
     68. A(C   6,C   4,C   9)          118.2725         0.417391   
     69. A(C   3,C   4,C   9)          123.0488         0.418153   
     70. A(C   3,C   4,C   6)          118.4915         0.419272   
     71. A(C   3,O   5,C  15)          122.8575         0.420883   
     72. A(C   4,C   6,C   7)          119.4699         0.416905   
     73. A(C   2,C   6,C   7)          121.0569         0.422009   
     74. A(C   2,C   6,C   4)          119.3877         0.423637   
     75. A(C   6,C   7,H  29)          117.7557         0.348129   
     76. A(C   6,C   7,C   8)          121.1685         0.435485   
     77. A(C   8,C   7,H  29)          120.9432         0.364149   
     78. A(C  10,C   8,H  30)          118.1539         0.348599   
     79. A(C   7,C   8,H  30)          121.3566         0.364280   
     80. A(C   7,C   8,C  10)          120.4688         0.435948   
     81. A(C   4,C   9,C  10)          119.5332         0.417093   
     82. A(C  10,C   9,N  11)          118.3395         0.423476   
     83. A(C   4,C   9,N  11)          122.1224         0.422645   
     84. A(C   9,C  10,C  14)          118.6098         0.423862   
     85. A(C   8,C  10,C  14)          122.3722         0.422982   
     86. A(C   8,C  10,C   9)          118.9996         0.417047   
     87. A(C   9,N  11,P  34)          120.8129         0.435523   
     88. A(C   9,N  11,C  12)          121.0229         0.435185   
     89. A(C  12,N  11,P  34)          114.3449         0.441686   
     90. A(N  11,C  12,H  31)          115.7990         0.358004   
     91. A(N  11,C  12,C  13)          121.7733         0.441570   
     92. A(C  13,C  12,H  31)          122.3817         0.358178   
     93. A(C  12,C  13,H  32)          119.8879         0.358732   
     94. A(C  12,C  13,C  14)          118.5283         0.440391   
     95. A(C  14,C  13,H  32)          121.4090         0.357657   
     96. A(C  10,C  14,H  33)          119.2663         0.353696   
     97. A(C  10,C  14,C  13)          119.8400         0.434426   
     98. A(C  13,C  14,H  33)          120.8932         0.357194   
     99. A(O  16,C  15,N  17)          125.3622         0.481433   
    100. A(O   5,C  15,N  17)          111.6601         0.433443   
    101. A(O   5,C  15,O  16)          122.9580         0.466114   
    102. A(C  18,N  17,C  19)          115.7183         0.383540   
    103. A(C  15,N  17,C  19)          124.1265         0.413813   
    104. A(C  15,N  17,C  18)          119.8630         0.414028   
    105. A(N  17,C  18,H  25)          109.8637         0.332999   
    106. A(H  23,C  18,H  24)          109.1590         0.291172   
    107. A(H  23,C  18,H  25)          109.5940         0.291282   
    108. A(N  17,C  18,H  24)          109.8184         0.332865   
    109. A(N  17,C  18,H  23)          109.1463         0.333344   
    110. A(H  24,C  18,H  25)          109.2441         0.290886   
    111. A(H  21,C  19,H  22)          109.3060         0.291788   
    112. A(H  20,C  19,H  22)          109.3324         0.291462   
    113. A(N  17,C  19,H  22)          110.3590         0.333561   
    114. A(H  20,C  19,H  21)          109.3433         0.291056   
    115. A(N  17,C  19,H  21)          108.1899         0.333070   
    116. A(N  17,C  19,H  20)          110.2860         0.332677   
    117. A(N  11,P  34,O  36)           99.7166         0.506315   
    118. A(N  11,P  34,O  35)          114.8559         0.543650   
    119. A(O  36,P  34,O  37)          102.5805         0.573359   
    120. A(O  35,P  34,O  37)          112.6705         0.616692   
    121. A(N  11,P  34,O  37)          100.4337         0.498746   
    122. A(O  35,P  34,O  36)          123.3952         0.626440   
    123. A(P  34,O  36,C  38)          122.5897         0.472488   
    124. A(P  34,O  37,C  39)          120.5704         0.468335   
    125. A(H  41,C  38,H  42)          110.0587         0.290308   
    126. A(C  40,C  38,H  42)          110.4480         0.326903   
    127. A(O  36,C  38,H  42)          108.8796         0.333869   
    128. A(C  40,C  38,H  41)          111.1176         0.327111   
    129. A(O  36,C  38,H  41)          104.2287         0.334083   
    130. A(O  36,C  38,C  40)          111.9254         0.378636   
    131. A(C  46,C  39,H  48)          111.3717         0.326642   
    132. A(O  37,C  39,H  48)          104.8441         0.335845   
    133. A(C  46,C  39,H  47)          110.4161         0.326081   
    134. A(O  37,C  39,H  47)          108.8125         0.335263   
    135. A(O  37,C  39,C  46)          111.6336         0.380290   
    136. A(H  47,C  39,H  48)          109.5932         0.289907   
    137. A(H  44,C  40,H  45)          109.1375         0.291657   
    138. A(H  43,C  40,H  45)          107.8034         0.291104   
    139. A(C  38,C  40,H  45)          110.1760         0.327435   
    140. A(H  43,C  40,H  44)          109.1306         0.291728   
    141. A(C  38,C  40,H  44)          110.0170         0.328171   
    142. A(C  38,C  40,H  43)          110.5297         0.327519   
    143. A(H  50,C  46,H  51)          109.6406         0.291625   
    144. A(H  49,C  46,H  51)          108.5792         0.291775   
    145. A(C  39,C  46,H  51)          110.0645         0.327203   
    146. A(H  49,C  46,H  50)          108.9717         0.292066   
    147. A(C  39,C  46,H  50)          110.4083         0.327545   
    148. A(C  39,C  46,H  49)          109.1406         0.327722   
    149. D(C   2,C   1,C   0,C   3)     -4.9570         0.025894   
    150. D(H  28,C   1,C   0,H  27)     -1.9226         0.025894   
    151. D(C   2,C   1,C   0,H  27)    175.0984         0.025894   
    152. D(H  28,C   1,C   0,C   3)    178.0220         0.025894   
    153. D(C   6,C   2,C   1,H  28)   -179.8219         0.030948   
    154. D(H  26,C   2,C   1,C   0)   -175.3103         0.030948   
    155. D(C   6,C   2,C   1,C   0)      3.2107         0.030948   
    156. D(H  26,C   2,C   1,H  28)      1.6572         0.030948   
    157. D(C   4,C   3,C   0,H  27)    179.5276         0.029990   
    158. D(O   5,C   3,C   0,C   1)    171.4420         0.029990   
    159. D(O   5,C   3,C   0,H  27)     -8.6134         0.029990   
    160. D(C   4,C   3,C   0,C   1)     -0.4170         0.029990   
    161. D(C   6,C   4,C   3,O   5)   -165.2707         0.021937   
    162. D(C   9,C   4,C   3,C   0)   -177.7853         0.021937   
    163. D(C   6,C   4,C   3,C   0)      7.2770         0.021937   
    164. D(C   9,C   4,C   3,O   5)      9.6670         0.021937   
    165. D(C  15,O   5,C   3,C   4)   -166.4418         0.025692   
    166. D(C  15,O   5,C   3,C   0)     21.3290         0.025692   
    167. D(C   7,C   6,C   4,C   9)     -7.4372         0.021475   
    168. D(C   2,C   6,C   4,C   9)    175.8883         0.021475   
    169. D(C   2,C   6,C   4,C   3)     -8.9292         0.021475   
    170. D(C   7,C   6,C   4,C   3)    167.7454         0.021475   
    171. D(C   7,C   6,C   2,H  26)      5.7210         0.024771   
    172. D(C   4,C   6,C   2,H  26)   -177.6587         0.024771   
    173. D(C   4,C   6,C   2,C   1)      3.8013         0.024771   
    174. D(C   7,C   6,C   2,C   1)   -172.8190         0.024771   
    175. D(H  29,C   7,C   6,C   4)    179.3701         0.020538   
    176. D(H  29,C   7,C   6,C   2)     -4.0123         0.020538   
    177. D(C   8,C   7,C   6,C   4)     -4.7790         0.020538   
    178. D(C   8,C   7,C   6,C   2)    171.8385         0.020538   
    179. D(C  10,C   8,C   7,C   6)      8.1052         0.036060   
    180. D(H  30,C   8,C   7,H  29)      2.1375         0.036060   
    181. D(H  30,C   8,C   7,C   6)   -173.5812         0.036060   
    182. D(C  10,C   8,C   7,H  29)   -176.1761         0.036060   
    183. D(N  11,C   9,C   4,C   6)   -162.9373         0.020818   
    184. D(N  11,C   9,C   4,C   3)     22.1145         0.020818   
    185. D(C  10,C   9,C   4,C   6)     16.2406         0.020818   
    186. D(C  10,C   9,C   4,C   3)   -158.7075         0.020818   
    187. D(C  14,C  10,C   9,N  11)    -12.4248         0.021297   
    188. D(C  14,C  10,C   9,C   4)    168.3661         0.021297   
    189. D(C   8,C  10,C   9,N  11)    166.0530         0.021297   
    190. D(C   8,C  10,C   9,C   4)    -13.1561         0.021297   
    191. D(C  14,C  10,C   8,H  30)      0.9371         0.020791   
    192. D(C  14,C  10,C   8,C   7)    179.3037         0.020791   
    193. D(C   9,C  10,C   8,H  30)   -177.4807         0.020791   
    194. D(C   9,C  10,C   8,C   7)      0.8860         0.020791   
    195. D(P  34,N  11,C   9,C  10)   -142.3051         0.031445   
    196. D(P  34,N  11,C   9,C   4)     36.8823         0.031445   
    197. D(C  12,N  11,C   9,C  10)     14.4445         0.031445   
    198. D(C  12,N  11,C   9,C   4)   -166.3681         0.031445   
    199. D(H  31,C  12,N  11,P  34)    -24.2448         0.037243   
    200. D(H  31,C  12,N  11,C   9)    177.6015         0.037243   
    201. D(C  13,C  12,N  11,P  34)    153.3439         0.037243   
    202. D(C  13,C  12,N  11,C   9)     -4.8099         0.037243   
    203. D(H  32,C  13,C  12,H  31)     -4.7804         0.029524   
    204. D(H  32,C  13,C  12,N  11)    177.7905         0.029524   
    205. D(C  14,C  13,C  12,H  31)    170.4825         0.029524   
    206. D(C  14,C  13,C  12,N  11)     -6.9466         0.029524   
    207. D(C  10,C  14,C  13,C  12)      8.4988         0.028432   
    208. D(H  33,C  14,C  10,C   9)   -179.2060         0.025138   
    209. D(H  33,C  14,C  10,C   8)      2.3704         0.025138   
    210. D(C  13,C  14,C  10,C   9)      1.0490         0.025138   
    211. D(C  13,C  14,C  10,C   8)   -177.3747         0.025138   
    212. D(H  33,C  14,C  13,H  32)      3.9457         0.028432   
    213. D(H  33,C  14,C  13,C  12)   -171.2420         0.028432   
    214. D(C  10,C  14,C  13,H  32)   -176.3135         0.028432   
    215. D(N  17,C  15,O   5,C   3)   -153.5228         0.025056   
    216. D(O  16,C  15,O   5,C   3)     28.0149         0.025056   
    217. D(C  19,N  17,C  15,O  16)    179.1078         0.040469   
    218. D(C  19,N  17,C  15,O   5)      0.6899         0.040469   
    219. D(C  18,N  17,C  15,O  16)      5.5902         0.040469   
    220. D(C  18,N  17,C  15,O   5)   -172.8276         0.040469   
    221. D(H  25,C  18,N  17,C  15)    118.8576         0.017582   
    222. D(H  24,C  18,N  17,C  19)     64.9911         0.017582   
    223. D(H  24,C  18,N  17,C  15)   -120.9631         0.017582   
    224. D(H  23,C  18,N  17,C  19)   -175.3787         0.017582   
    225. D(H  23,C  18,N  17,C  15)     -1.3329         0.017582   
    226. D(H  22,C  19,N  17,C  15)     26.3702         0.017478   
    227. D(H  21,C  19,N  17,C  18)    -40.3225         0.017478   
    228. D(H  21,C  19,N  17,C  15)    145.9163         0.017478   
    229. D(H  20,C  19,N  17,C  18)     79.2261         0.017478   
    230. D(H  20,C  19,N  17,C  15)    -94.5351         0.017478   
    231. D(O  37,P  34,N  11,C   9)    119.4231         0.004927   
    232. D(O  36,P  34,N  11,C  12)     66.0653         0.004927   
    233. D(O  36,P  34,N  11,C   9)   -135.7306         0.004927   
    234. D(O  35,P  34,N  11,C  12)   -159.9272         0.004927   
    235. D(O  35,P  34,N  11,C   9)     -1.7232         0.004927   
    236. D(C  38,O  36,P  34,O  37)    -44.9364         0.016538   
    237. D(C  38,O  36,P  34,O  35)     83.3895         0.016538   
    238. D(C  38,O  36,P  34,N  11)   -148.0256         0.016538   
    239. D(C  39,O  37,P  34,O  36)    158.4453         0.014132   
    240. D(C  39,O  37,P  34,O  35)     23.6651         0.014132   
    241. D(C  39,O  37,P  34,N  11)    -99.0260         0.014132   
    242. D(H  42,C  38,O  36,P  34)     64.1489         0.017077   
    243. D(H  41,C  38,O  36,P  34)   -178.4206         0.017077   
    244. D(C  40,C  38,O  36,P  34)    -58.2397         0.017077   
    245. D(H  48,C  39,O  37,P  34)   -159.3323         0.018254   
    246. D(H  47,C  39,O  37,P  34)    -42.1525         0.018254   
    247. D(C  46,C  39,O  37,P  34)     79.9585         0.018254   
    248. D(H  44,C  40,C  38,H  42)     63.8773         0.012397   
    249. D(H  44,C  40,C  38,H  41)    -58.5618         0.012397   
    250. D(H  44,C  40,C  38,O  36)   -174.6331         0.012397   
    251. D(H  43,C  40,C  38,H  42)   -175.5341         0.012397   
    252. D(H  43,C  40,C  38,H  41)     62.0268         0.012397   
    253. D(H  43,C  40,C  38,O  36)    -54.0445         0.012397   
    254. D(H  50,C  46,C  39,H  48)    -62.9632         0.012217   
    255. D(H  50,C  46,C  39,H  47)    175.0384         0.012217   
    256. D(H  50,C  46,C  39,O  37)     53.8547         0.012217   
    257. D(H  49,C  46,C  39,H  48)     56.7928         0.012217   
    258. D(H  49,C  46,C  39,H  47)    -65.2056         0.012217   
    259. D(H  49,C  46,C  39,O  37)    173.6106         0.012217   
    -----------------------------------------------------------------

Number of atoms                         .... 52
Number of degrees of freedom            .... 259


         *************************************************************
         *                GEOMETRY OPTIMIZATION CYCLE   1            *
         *************************************************************
---------------------------------
CARTESIAN COORDINATES (ANGSTROEM)
---------------------------------
  C     -3.507011   -0.664022    0.544110
  C     -3.934320   -1.542022    1.541147
  C     -3.210024   -1.694750    2.697281
  C     -2.406293    0.136530    0.751661
  C     -1.704845    0.081339    1.981689
  O     -1.816090    0.901415   -0.225289
  C     -2.064386   -0.919819    2.922094
  C     -1.216390   -1.168097    4.040974
  C     -0.027559   -0.534599    4.173182
  C     -0.588239    0.914163    2.276906
  C      0.329809    0.522351    3.288202
  N     -0.373578    2.092491    1.630933
  C      0.803896    2.724896    1.721367
  C      1.812056    2.268116    2.543549
  C      1.541581    1.213647    3.397491
  C     -2.474724    1.288106   -1.371293
  O     -3.684609    1.438725   -1.422930
  N     -1.629447    1.500832   -2.374939
  C     -2.113088    2.063211   -3.617330
  C     -0.194908    1.331103   -2.278507
  H      0.283360    2.282369   -2.043636
  H      0.169991    0.971538   -3.238792
  H      0.048787    0.606160   -1.507528
  H     -3.187124    2.219557   -3.543994
  H     -1.906705    1.376874   -4.438829
  H     -1.617801    3.014171   -3.810842
  H     -3.501185   -2.427894    3.432090
  H     -4.040500   -0.611324   -0.391336
  H     -4.817959   -2.134599    1.366162
  H     -1.521240   -1.927361    4.743459
  H      0.661135   -0.793078    4.960934
  H      0.895696    3.631906    1.143151
  H      2.759537    2.779844    2.566098
  H      2.252123    0.916560    4.153427
  P     -1.727158    3.134110    1.173036
  O     -3.050895    2.605585    1.507359
  O     -1.291051    3.508996   -0.284713
  O     -1.368119    4.448624    1.990583
  C     -1.606772    4.778678   -0.886492
  C     -2.002261    4.722155    3.244116
  C     -3.099985    5.030121   -0.926112
  H     -1.193130    4.708352   -1.893648
  H     -1.101337    5.569713   -0.328362
  H     -3.613748    4.202950   -1.413715
  H     -3.308130    5.947450   -1.468295
  H     -3.493485    5.116380    0.086094
  C     -1.369147    3.933906    4.374858
  H     -3.066614    4.482349    3.160863
  H     -1.879587    5.796618    3.390940
  H     -1.801864    4.254080    5.317964
  H     -0.296303    4.105376    4.402069
  H     -1.566667    2.871279    4.245645

----------------------------
CARTESIAN COORDINATES (A.U.)
----------------------------
  NO LB      ZA    FRAG     MASS         X           Y           Z
   0 C     6.0000    0    12.011   -6.627290   -1.254819    1.028219
   1 C     6.0000    0    12.011   -7.434787   -2.913999    2.912346
   2 C     6.0000    0    12.011   -6.066066   -3.202614    5.097123
   3 C     6.0000    0    12.011   -4.547235    0.258004    1.420433
   4 C     6.0000    0    12.011   -3.221689    0.153709    3.744849
   5 O     8.0000    0    15.999   -3.431912    1.703427   -0.425734
   6 C     6.0000    0    12.011   -3.901125   -1.738207    5.521957
   7 C     6.0000    0    12.011   -2.298645   -2.207383    7.636334
   8 C     6.0000    0    12.011   -0.052079   -1.010246    7.886171
   9 C     6.0000    0    12.011   -1.111610    1.727518    4.302728
  10 C     6.0000    0    12.011    0.623249    0.987101    6.213801
  11 N     7.0000    0    14.007   -0.705960    3.954235    3.082017
  12 C     6.0000    0    12.011    1.519143    5.149307    3.252913
  13 C     6.0000    0    12.011    3.424289    4.286118    4.806611
  14 C     6.0000    0    12.011    2.913165    2.293460    6.420327
  15 C     6.0000    0    12.011   -4.676551    2.434167   -2.591368
  16 O     8.0000    0    15.999   -6.962903    2.718796   -2.688948
  17 N     7.0000    0    14.007   -3.079209    2.836161   -4.487984
  18 C     6.0000    0    12.011   -3.993158    3.898904   -6.835764
  19 C     6.0000    0    12.011   -0.368322    2.515421   -4.305754
  20 H     1.0000    0     1.008    0.535472    4.313052   -3.861912
  21 H     1.0000    0     1.008    0.321237    1.835941   -6.120429
  22 H     1.0000    0     1.008    0.092193    1.145477   -2.848815
  23 H     1.0000    0     1.008   -6.022792    4.194355   -6.697178
  24 H     1.0000    0     1.008   -3.603151    2.601914   -8.388172
  25 H     1.0000    0     1.008   -3.057201    5.695957   -7.201448
  26 H     1.0000    0     1.008   -6.616280   -4.588055    6.485709
  27 H     1.0000    0     1.008   -7.635438   -1.155235   -0.739519
  28 H     1.0000    0     1.008   -9.104622   -4.033808    2.581672
  29 H     1.0000    0     1.008   -2.874727   -3.642184    8.963838
  30 H     1.0000    0     1.008    1.249365   -1.498701    9.374807
  31 H     1.0000    0     1.008    1.692619    6.863307    2.160241
  32 H     1.0000    0     1.008    5.214769    5.253144    4.849222
  33 H     1.0000    0     1.008    4.255896    1.732048    7.848839
  34 P    15.0000    0    30.974   -3.263855    5.922609    2.216716
  35 O     8.0000    0    15.999   -5.765357    4.923842    2.848495
  36 O     8.0000    0    15.999   -2.439732    6.631042   -0.538029
  37 O     8.0000    0    15.999   -2.585370    8.406680    3.761658
  38 C     6.0000    0    12.011   -3.036359    9.030392   -1.675227
  39 C     6.0000    0    12.011   -3.783726    8.923579    6.130491
  40 C     6.0000    0    12.011   -5.858122    9.505551   -1.750099
  41 H     1.0000    0     1.008   -2.254690    8.897495   -3.578476
  42 H     1.0000    0     1.008   -2.081225   10.525233   -0.620515
  43 H     1.0000    0     1.008   -6.828993    7.942424   -2.671533
  44 H     1.0000    0     1.008   -6.251460   11.239051   -2.774675
  45 H     1.0000    0     1.008   -6.601731    9.668557    0.162695
  46 C     6.0000    0    12.011   -2.587313    7.434006    8.267284
  47 H     1.0000    0     1.008   -5.795060    8.470413    5.973166
  48 H     1.0000    0     1.008   -3.551904   10.954021    6.407949
  49 H     1.0000    0     1.008   -3.405029    8.039047   10.049496
  50 H     1.0000    0     1.008   -0.559932    7.758036    8.318704
  51 H     1.0000    0     1.008   -2.960572    5.425931    8.023107

--------------------------------
INTERNAL COORDINATES (ANGSTROEM)
--------------------------------
 C      0   0   0     0.000000000000     0.00000000     0.00000000
 C      1   0   0     1.395550245190     0.00000000     0.00000000
 C      2   1   0     1.372798922914   120.67229449     0.00000000
 C      1   2   3     1.376785925783   120.19327454   355.04298975
 C      4   1   2     1.417055062600   120.26202910   359.58300126
 O      4   1   2     1.373979518375   124.05111666   171.44199343
 C      3   2   1     1.401264961735   120.32770842     3.21065540
 C      7   3   2     1.425703513630   121.05686808   187.18102427
 C      8   7   3     1.353557941673   121.16847897   171.83853900
 C      5   4   1     1.423923072762   123.04884350   182.21468196
 C     10   5   4     1.420932227578   119.53317325   201.29246707
 N     10   5   4     1.360814768362   122.12235368    22.11447483
 C     12  10   5     1.339611430800   121.02289620   193.63186499
 C     13  12  10     1.378773833658   121.77326308   355.19014576
 C     14  13  12     1.383574934241   118.52827894   353.05340654
 C      6   4   1     1.377190815859   122.85752181    21.32895908
 O     16   6   4     1.220317317566   122.95795884    28.01486834
 N     16   6   4     1.329304587905   111.66011237   206.47716647
 C     18  16   6     1.446967680103   119.86295858   187.17236864
 C     18  16   6     1.447760792753   124.12645836     0.68993967
 H     20  18  16     1.090325504995   110.28595655   265.46492074
 H     20  18  16     1.088386698437   108.18985348   145.91628370
 H     20  18  16     1.085973069272   110.35896809    26.37015237
 H     19  18  16     1.087830695582   109.14630495   358.66707401
 H     19  18  16     1.090189696571   109.81843296   239.03687940
 H     19  18  16     1.089532201958   109.86374209   118.85764843
 H      3   2   1     1.078062006980   120.47684034   184.68973672
 H      1   2   3     1.078168347123   119.94109370   175.09840515
 H      2   1   3     1.078232781601   118.73461174   182.97903738
 H      8   7   3     1.078378368466   117.75569238   355.98771230
 H      9   8   7     1.077805812652   121.35656983   186.41882193
 H     13  12  10     1.079550113397   115.79899539   177.60151394
 H     14  13  12     1.077076709534   119.88789851   177.79046503
 H     15  14  13     1.079152415539   120.89315715   188.75801211
 P     12  10   5     1.768280944946   120.81293723    36.88228618
 O     35  12  10     1.464032463466   114.85588251   358.27681765
 O     35  12  10     1.567086631842    99.71656463   224.26938234
 O     35  12  10     1.589100535280   100.43374112   119.42306831
 C     37  35  12     1.440107166256   122.58970488   211.97441324
 C     38  35  12     1.431188222973   120.57037046   260.97401410
 C     39  37  35     1.514753465784   111.92537259   301.76025419
 H     39  37  35     1.091058312349   104.22865690   181.57944719
 H     39  37  35     1.092112998910   108.87964781    64.14888377
 H     41  39  37     1.088999616703   110.52965197   305.95553534
 H     41  39  37     1.085715670945   110.01703107   185.36688407
 H     41  39  37     1.089424602430   110.17599367    64.99635773
 C     40  38  35     1.516821343186   111.63355089    79.95853662
 H     40  38  35     1.094204392869   108.81254035   317.84754612
 H     40  38  35     1.091365256572   104.84408196   200.66766143
 H     47  40  38     1.085911365542   109.14057269   173.61062064
 H     47  40  38     1.086801031910   110.40834041    53.85468542
 H     47  40  38     1.088525155900   110.06449471   292.67679781

---------------------------
INTERNAL COORDINATES (A.U.)
---------------------------
 C      0   0   0     0.000000000000     0.00000000     0.00000000
 C      1   0   0     2.637207769536     0.00000000     0.00000000
 C      2   1   0     2.594214001250   120.67229449     0.00000000
 C      1   2   3     2.601748344766   120.19327454   355.04298975
 C      4   1   2     2.677845985001   120.26202910   359.58300126
 O      4   1   2     2.596445003345   124.05111666   171.44199343
 C      3   2   1     2.648007018739   120.32770842     3.21065540
 C      7   3   2     2.694189188929   121.05686808   187.18102427
 C      8   7   3     2.557853816156   121.16847897   171.83853900
 C      5   4   1     2.690824643291   123.04884350   182.21468196
 C     10   5   4     2.685172764986   119.53317325   201.29246707
 N     10   5   4     2.571567231200   122.12235368    22.11447483
 C     12  10   5     2.531498730082   121.02289620   193.63186499
 C     13  12  10     2.605504946230   121.77326308   355.19014576
 C     14  13  12     2.614577711474   118.52827894   353.05340654
 C      6   4   1     2.602513476125   122.85752181    21.32895908
 O     16   6   4     2.306065526682   122.95795884    28.01486834
 N     16   6   4     2.512021619705   111.66011237   206.47716647
 C     18  16   6     2.734372640030   119.86295858   187.17236864
 C     18  16   6     2.735871405732   124.12645836     0.68993967
 H     20  18  16     2.060416601270   110.28595655   265.46492074
 H     20  18  16     2.056752787849   108.18985348   145.91628370
 H     20  18  16     2.052191689737   110.35896809    26.37015237
 H     19  18  16     2.055702094722   109.14630495   358.66707401
 H     19  18  16     2.060159960543   109.81843296   239.03687940
 H     19  18  16     2.058917475790   109.86374209   118.85764843
 H      3   2   1     2.037241948577   120.47684034   184.68973672
 H      1   2   3     2.037442902325   119.94109370   175.09840515
 H      2   1   3     2.037564665843   118.73461174   182.97903738
 H      8   7   3     2.037839785146   117.75569238   355.98771230
 H      9   8   7     2.036757811461   121.35656983   186.41882193
 H     13  12  10     2.040054062164   115.79899539   177.60151394
 H     14  13  12     2.035380006243   119.88789851   177.79046503
 H     15  14  13     2.039302522128   120.89315715   188.75801211
 P     12  10   5     3.341566713779   120.81293723    36.88228618
 O     35  12  10     2.766620407121   114.85588251   358.27681765
 O     35  12  10     2.961364562310    99.71656463   224.26938234
 O     35  12  10     3.002964810947   100.43374112   119.42306831
 C     37  35  12     2.721408147720   122.58970488   211.97441324
 C     38  35  12     2.704553787512   120.57037046   260.97401410
 C     39  37  35     2.862469210740   111.92537259   301.76025419
 H     39  37  35     2.061801406478   104.22865690   181.57944719
 H     39  37  35     2.063794475236   108.87964781    64.14888377
 H     41  39  37     2.057911035513   110.52965197   305.95553534
 H     41  39  37     2.051705277393   110.01703107   185.36688407
 H     41  39  37     2.058714142149   110.17599367    64.99635773
 C     40  38  35     2.866376932707   111.63355089    79.95853662
 H     40  38  35     2.067746637057   108.81254035   317.84754612
 H     40  38  35     2.062381446998   104.84408196   200.66766143
 H     47  40  38     2.052075086587   109.14057269   173.61062064
 H     47  40  38     2.053756312373   110.40834041    53.85468542
 H     47  40  38     2.057014434534   110.06449471   292.67679781

---------------------
BASIS SET INFORMATION
---------------------
There are 5 groups of distinct atoms

 Group   1 Type C   : 11s5p1d contracted to 4s3p1d pattern {6311/311/1}
 Group   2 Type O   : 11s5p1d contracted to 4s3p1d pattern {6311/311/1}
 Group   3 Type N   : 11s5p1d contracted to 4s3p1d pattern {6311/311/1}
 Group   4 Type H   : 5s contracted to 3s pattern {311}
 Group   5 Type P   : 13s9p1d contracted to 6s5p1d pattern {631111/42111/1}

Atom   0C    basis set group =>   1
Atom   1C    basis set group =>   1
Atom   2C    basis set group =>   1
Atom   3C    basis set group =>   1
Atom   4C    basis set group =>   1
Atom   5O    basis set group =>   2
Atom   6C    basis set group =>   1
Atom   7C    basis set group =>   1
Atom   8C    basis set group =>   1
Atom   9C    basis set group =>   1
Atom  10C    basis set group =>   1
Atom  11N    basis set group =>   3
Atom  12C    basis set group =>   1
Atom  13C    basis set group =>   1
Atom  14C    basis set group =>   1
Atom  15C    basis set group =>   1
Atom  16O    basis set group =>   2
Atom  17N    basis set group =>   3
Atom  18C    basis set group =>   1
Atom  19C    basis set group =>   1
Atom  20H    basis set group =>   4
Atom  21H    basis set group =>   4
Atom  22H    basis set group =>   4
Atom  23H    basis set group =>   4
Atom  24H    basis set group =>   4
Atom  25H    basis set group =>   4
Atom  26H    basis set group =>   4
Atom  27H    basis set group =>   4
Atom  28H    basis set group =>   4
Atom  29H    basis set group =>   4
Atom  30H    basis set group =>   4
Atom  31H    basis set group =>   4
Atom  32H    basis set group =>   4
Atom  33H    basis set group =>   4
Atom  34P    basis set group =>   5
Atom  35O    basis set group =>   2
Atom  36O    basis set group =>   2
Atom  37O    basis set group =>   2
Atom  38C    basis set group =>   1
Atom  39C    basis set group =>   1
Atom  40C    basis set group =>   1
Atom  41H    basis set group =>   4
Atom  42H    basis set group =>   4
Atom  43H    basis set group =>   4
Atom  44H    basis set group =>   4
Atom  45H    basis set group =>   4
Atom  46C    basis set group =>   1
Atom  47H    basis set group =>   4
Atom  48H    basis set group =>   4
Atom  49H    basis set group =>   4
Atom  50H    basis set group =>   4
Atom  51H    basis set group =>   4
---------------------------------
AUXILIARY/J BASIS SET INFORMATION
---------------------------------
There are 5 groups of distinct atoms

 Group   1 Type C   : 12s5p4d2f1g contracted to 6s4p3d1f1g pattern {711111/2111/211/2/1}
 Group   2 Type O   : 12s5p4d2f1g contracted to 6s4p3d1f1g pattern {711111/2111/211/2/1}
 Group   3 Type N   : 12s5p4d2f1g contracted to 6s4p3d1f1g pattern {711111/2111/211/2/1}
 Group   4 Type H   : 5s2p1d contracted to 3s1p1d pattern {311/2/1}
 Group   5 Type P   : 14s5p5d2f1g contracted to 8s4p3d1f1g pattern {71111111/2111/311/2/1}

Atom   0C    basis set group =>   1
Atom   1C    basis set group =>   1
Atom   2C    basis set group =>   1
Atom   3C    basis set group =>   1
Atom   4C    basis set group =>   1
Atom   5O    basis set group =>   2
Atom   6C    basis set group =>   1
Atom   7C    basis set group =>   1
Atom   8C    basis set group =>   1
Atom   9C    basis set group =>   1
Atom  10C    basis set group =>   1
Atom  11N    basis set group =>   3
Atom  12C    basis set group =>   1
Atom  13C    basis set group =>   1
Atom  14C    basis set group =>   1
Atom  15C    basis set group =>   1
Atom  16O    basis set group =>   2
Atom  17N    basis set group =>   3
Atom  18C    basis set group =>   1
Atom  19C    basis set group =>   1
Atom  20H    basis set group =>   4
Atom  21H    basis set group =>   4
Atom  22H    basis set group =>   4
Atom  23H    basis set group =>   4
Atom  24H    basis set group =>   4
Atom  25H    basis set group =>   4
Atom  26H    basis set group =>   4
Atom  27H    basis set group =>   4
Atom  28H    basis set group =>   4
Atom  29H    basis set group =>   4
Atom  30H    basis set group =>   4
Atom  31H    basis set group =>   4
Atom  32H    basis set group =>   4
Atom  33H    basis set group =>   4
Atom  34P    basis set group =>   5
Atom  35O    basis set group =>   2
Atom  36O    basis set group =>   2
Atom  37O    basis set group =>   2
Atom  38C    basis set group =>   1
Atom  39C    basis set group =>   1
Atom  40C    basis set group =>   1
Atom  41H    basis set group =>   4
Atom  42H    basis set group =>   4
Atom  43H    basis set group =>   4
Atom  44H    basis set group =>   4
Atom  45H    basis set group =>   4
Atom  46C    basis set group =>   1
Atom  47H    basis set group =>   4
Atom  48H    basis set group =>   4
Atom  49H    basis set group =>   4
Atom  50H    basis set group =>   4
Atom  51H    basis set group =>   4
------------------------------------------------------------------------------
                             ORCA STARTUP CALCULATIONS
                           -- RI-GTO INTEGRALS CHOSEN --
------------------------------------------------------------------------------
------------------------------------------------------------------------------
                   ___                                                        
                  /   \      - P O W E R E D   B Y -                         
                 /     \                                                     
                 |  |  |   _    _      __       _____    __    __             
                 |  |  |  | |  | |    /  \     |  _  \  |  |  /  |          
                  \  \/   | |  | |   /    \    | | | |  |  | /  /          
                 / \  \   | |__| |  /  /\  \   | |_| |  |  |/  /          
                |  |  |   |  __  | /  /__\  \  |    /   |      \           
                |  |  |   | |  | | |   __   |  |    \   |  |\   \          
                \     /   | |  | | |  |  |  |  | |\  \  |  | \   \       
                 \___/    |_|  |_| |__|  |__|  |_| \__\ |__|  \__/        
                                                                              
                      - O R C A' S   B I G   F R I E N D -                    
                                      &                                       
                       - I N T E G R A L  F E E D E R -                       
                                                                              
 v1 FN, 2020, v2 2021, v3 2022-2024                                           
------------------------------------------------------------------------------


----------------------
SHARK INTEGRAL PACKAGE
----------------------

Number of atoms                             ...     52
Number of basis functions                   ...    584
Number of shells                            ...    300
Maximum angular momentum                    ...      2
Integral batch strategy                     ... SHARK/LIBINT Hybrid
RI-J (if used) integral strategy            ... SPLIT-RIJ (Revised 2003 algorithm where possible)
Printlevel                                  ...      1
Contraction scheme used                     ... SEGMENTED contraction
Prescreening option                         ... SCHWARTZ
   Thresh                                   ... 2.500e-11
   Tcut                                     ... 2.500e-12
   Tpresel                                  ... 2.500e-12 
Coulomb Range Separation                    ... NOT USED
Exchange Range Separation                   ... NOT USED
Multipole approximations                    ... NOT USED
Finite Nucleus Model                        ... NOT USED
CABS basis                                  ... NOT available
Auxiliary Coulomb fitting basis             ... AVAILABLE
   # of basis functions in Aux-J            ...   1638
   # of shells in Aux-J                     ...    542
   Maximum angular momentum in Aux-J        ...      4
Auxiliary J/K fitting basis                 ... NOT available
Auxiliary Correlation fitting basis         ... NOT available
Auxiliary 'external' fitting basis          ... NOT available

Checking pre-screening integrals            ... done (  0.0 sec) Dimension = 300
Check shell pair data                       ... done (  0.0 sec)
Shell pair information
Shell pair cut-off parameter TPreSel        ...   2.5e-12
Total number of shell pairs                 ...     45150
Shell pairs after pre-screening             ...     30930
Total number of primitive shell pairs       ...    182167
Primitive shell pairs kept                  ...     72380
          la=0 lb=0:  11183 shell pairs
          la=1 lb=0:  11426 shell pairs
          la=1 lb=1:   2954 shell pairs
          la=2 lb=0:   3306 shell pairs
          la=2 lb=1:   1781 shell pairs
          la=2 lb=2:    280 shell pairs

Calculating one electron integrals          ... done (  0.1 sec)
Calculating RI/J V-Matrix + Cholesky decomp.... done (  0.5 sec)
Calculating Nuclear repulsion               ... done (  0.0 sec) ENN=   3224.365715854392 Eh

Diagonalization of the overlap matrix:
Smallest eigenvalue                        ... 8.527e-05
Time for diagonalization                   ...    0.025 sec
Threshold for overlap eigenvalues          ... 1.000e-07
Number of eigenvalues below threshold      ... 0
Time for construction of square roots      ...    0.059 sec
Total time needed                          ...    0.095 sec

-------------------
DFT GRID GENERATION
-------------------

General Integration Accuracy     IntAcc      ... 4.388
Radial Grid Type                 RadialGrid  ... OptM3 with GC (2021)
Angular Grid (max. ang.)         AngularGrid ... 4 (Lebedev-302)
Angular grid pruning method      GridPruning ... 4 (adaptive)
Weight generation scheme         WeightScheme... mBecke (2022)
Basis function cutoff            BFCut       ... 1.0000e-11
Integration weight cutoff        WCut        ... 1.0000e-14
Partially contracted basis set               ... off
Rotationally invariant grid construction     ... off
Angular grids for H and He will be reduced by one unit

Total number of grid points                  ...   243734
Total number of batches                      ...     3834
Average number of points per batch           ...       63
Average number of grid points per atom       ...     4687

--------------------
COSX GRID GENERATION
--------------------

GRIDX 1
-------
General Integration Accuracy     IntAcc      ... 3.816
Radial Grid Type                 RadialGrid  ... OptM3 with GC (2021)
Angular Grid (max. ang.)         AngularGrid ... 1 (Lebedev-50)
Angular grid pruning method      GridPruning ... 4 (adaptive)
Weight generation scheme         WeightScheme... mBecke (2022)
Basis function cutoff            BFCut       ... 1.0000e-11
Integration weight cutoff        WCut        ... 1.0000e-14
Partially contracted basis set               ... on
Rotationally invariant grid construction     ... off
Angular grids for H and He will be reduced by one unit

Total number of grid points                  ...    31928
Total number of batches                      ...      276
Average number of points per batch           ...      115
Average number of grid points per atom       ...      614
UseSFitting                                  ... on

GRIDX 2
-------
General Integration Accuracy     IntAcc      ... 4.020
Radial Grid Type                 RadialGrid  ... OptM3 with GC (2021)
Angular Grid (max. ang.)         AngularGrid ... 2 (Lebedev-110)
Angular grid pruning method      GridPruning ... 4 (adaptive)
Weight generation scheme         WeightScheme... mBecke (2022)
Basis function cutoff            BFCut       ... 1.0000e-11
Integration weight cutoff        WCut        ... 1.0000e-14
Partially contracted basis set               ... on
Rotationally invariant grid construction     ... off
Angular grids for H and He will be reduced by one unit

Total number of grid points                  ...    66174
Total number of batches                      ...      546
Average number of points per batch           ...      121
Average number of grid points per atom       ...     1273
UseSFitting                                  ... on

GRIDX 3
-------
General Integration Accuracy     IntAcc      ... 4.338
Radial Grid Type                 RadialGrid  ... OptM3 with GC (2021)
Angular Grid (max. ang.)         AngularGrid ... 3 (Lebedev-194)
Angular grid pruning method      GridPruning ... 4 (adaptive)
Weight generation scheme         WeightScheme... mBecke (2022)
Basis function cutoff            BFCut       ... 1.0000e-11
Integration weight cutoff        WCut        ... 1.0000e-14
Partially contracted basis set               ... on
Rotationally invariant grid construction     ... off
Angular grids for H and He will be reduced by one unit

Total number of grid points                  ...   144397
Total number of batches                      ...     1156
Average number of points per batch           ...      124
Average number of grid points per atom       ...     2777
UseSFitting                                  ... on
Initializing property integral containers    ... done (  0.0 sec)

SHARK setup successfully completed in   7.4 seconds

Maximum memory used throughout the entire STARTUP-calculation: 131.0 MB
-------------------------------------------------------------------------------
                                 ORCA GUESS
                   Start orbitals & Density for SCF / CASSCF
-------------------------------------------------------------------------------

------------
SCF SETTINGS
------------
Hamiltonian:
 Density Functional     Method          .... DFT(GTOs)
 Exchange Functional    Exchange        .... B88
   X-Alpha parameter    XAlpha          ....  0.666667
   Becke's b parameter  XBeta           ....  0.004200
 Correlation Functional Correlation     .... LYP
 LDA part of GGA corr.  LDAOpt          .... VWN-3
 Gradients option       PostSCFGGA      .... off
 Hybrid DFT is turned on
   Fraction HF Exchange ScalHFX         ....  0.200000
   Scaling of DF-GGA-X  ScalDFX         ....  0.720000
   Scaling of DF-GGA-C  ScalDFC         ....  0.810000
   Scaling of DF-LDA-C  ScalLDAC        ....  1.000000
   Perturbative correction              ....  0.000000
   NL short-range parameter             ....  4.800000
 RI-approximation to the Coulomb term is turned on
   Number of AuxJ basis functions       .... 1638
   RIJ-COSX (HFX calculated with COS-X)).... on


General Settings:
 Integral files         IntName         .... 1globalminimum
 Hartree-Fock type      HFTyp           .... RHF
 Total Charge           Charge          ....    1
 Multiplicity           Mult            ....    1
 Number of Electrons    NEL             ....  212
 Basis Dimension        Dim             ....  584
 Nuclear Repulsion      ENuc            ....   3224.3657158544 Eh

Convergence Acceleration:
 AO-DIIS                CNVDIIS         .... on
   Start iteration      DIISMaxIt       ....    12
   Startup error        DIISStart       ....  0.200000
   # of expansion vecs  DIISMaxEq       ....     5
   Bias factor          DIISBfac        ....   1.050
   Max. coefficient     DIISMaxC        ....  10.000
 MO-DIIS                CNVKDIIS        .... off
 Trust-Rad. Augm. Hess. CNVTRAH         .... auto
   Auto Start mean grad. ratio tolernc. ....  1.125000
   Auto Start start iteration           ....    50
   Auto Start num. interpolation iter.  ....    10
   Max. Number of Micro iterations      ....    24
   Max. Number of Macro iterations      .... Maxiter - #DIIS iter
   Number of Davidson start vectors     ....     2
   Converg. threshold    (grad. norm)   ....   1.000e-05
   Grad. Scal. Fac. for Micro threshold ....   0.100
   Minimum threshold for Micro iter.    ....   1.000e-02
   NR start threshold (gradient norm)   ....   1.000e-04
   Initial trust radius                 ....   0.400
   Minimum AH scaling param. (alpha)    ....   1.000
   Maximum AH scaling param. (alpha)    .... 1000.000
   Quad. conv. algorithm                .... NR
   White noise on init. David. guess    .... on
   Maximum white noise                  ....   0.010
   Pseudo random numbers                .... off
   Inactive MOs                         .... canonical
   Orbital update algorithm             .... Taylor
   Preconditioner                       .... Diag
   Full preconditioner red. dimension   ....   250
 SOSCF                  CNVSOSCF        .... on
   Start iteration      SOSCFMaxIt      ....   150
   Startup grad/error   SOSCFStart      ....  0.003300
   Hessian update       SOSCFHessUp     .... L-BFGS
 Level Shifting         CNVShift        .... on
   Level shift para.    LevelShift      ....    0.2500
   Turn off err/grad.   ShiftErr        ....    0.0010
 Zerner damping         CNVZerner       .... off
 Static damping         CNVDamp         .... on
   Fraction old density DampFac         ....    0.7000
   Max. Damping (<1)    DampMax         ....    0.9800
   Min. Damping (>=0)   DampMin         ....    0.0000
   Turn off err/grad.   DampErr         ....    0.1000

SCF Procedure:
 Maximum # iterations   MaxIter         ....   125
 SCF integral mode      SCFMode         .... Direct
   Integral package                     .... SHARK and LIBINT hybrid scheme
 Reset frequency        DirectResetFreq ....    20
 Integral Threshold     Thresh          ....  2.500e-11 Eh
 Primitive CutOff       TCut            ....  2.500e-12 Eh

Convergence Tolerance:
 Convergence Check Mode ConvCheckMode   .... Total+1el-Energy
 Convergence forced     ConvForced      .... 1
 Energy Change          TolE            ....  1.000e-08 Eh
 1-El. energy change                    ....  1.000e-05 Eh
 Orbital Gradient       TolG            ....  1.000e-05
 Orbital Rotation angle TolX            ....  1.000e-05
 DIIS Error             TolErr          ....  5.000e-07

------------------------------
INITIAL GUESS: MODEL POTENTIAL
------------------------------
Loading Hartree-Fock densities                     ... done
Calculating cut-offs                               ... done
Initializing the effective Hamiltonian             ... done
Setting up the integral package (SHARK)            ... done
Starting the Coulomb interaction                   ... done (   1.4 sec)
Making the grid                                    ... done (   0.7 sec)
Mapping shells                                     ... done
Starting the XC term evaluation                    ... done (   0.6 sec)
  promolecular density results
     # of electrons  =    212.994984520
     EX              =   -187.064050067
     EC              =     -7.428649839
     EX+EC           =   -194.492699906
Transforming the Hamiltonian                       ... done (   0.0 sec)
Diagonalizing the Hamiltonian                      ... done (   0.0 sec)
Back transforming the eigenvectors                 ... done (   0.0 sec)
Now organizing SCF variables                       ... done
                      ------------------
                      INITIAL GUESS DONE (   2.7 sec)
                      ------------------
             **** ENERGY FILE WAS UPDATED (1globalminimum.en.tmp) ****
Finished Guess after   3.2 sec
Maximum memory used throughout the entire GUESS-calculation: 82.2 MB

-------------------------------------------------------------------------------------------
                                      ORCA LEAN-SCF
                              memory conserving SCF solver
-------------------------------------------------------------------------------------------

--------------------
CPCM SOLVATION MODEL
--------------------
CPCM parameters:
  Epsilon                                         ...      80.1510
  Refrac                                          ...       1.3328
  Rsolv                                           ...       1.3000
  Surface type                                    ... GAUSSIAN VDW
  Discretization scheme                           ... Constant charge density
    Threshold for H atoms                         ...       5.0000 (charges/Ang^2)
    Threshold for non-H atoms                     ...       5.0000 (charges/Ang^2)
  Epsilon function type                           ...         CPCM
Solvent:                                          ... WATER
Radii:
  Scheme                                          ... Element-dependent radii
  Radius for C  used is    3.8550 Bohr (=   2.0400 Ang.)
  Radius for O  used is    3.4469 Bohr (=   1.8240 Ang.)
  Radius for N  used is    3.5149 Bohr (=   1.8600 Ang.)
  Radius for H  used is    2.4944 Bohr (=   1.3200 Ang.)
  Radius for P  used is    4.0818 Bohr (=   2.1600 Ang.)
Calculating surface                               ...        done! (  0.0s)
Cavity surface points                             ...         4207
Cavity Volume                                     ...    3017.5217
Cavity Surface-area                               ...    1434.9865
Calculating surface distance matrix               ...        done! (  0.1s)
Performing Cholesky decomposition & store         ...        done! (  2.1s)
Overall time for CPCM initialization              ...                 2.1s

----------------------------------------D-I-I-S--------------------------------------------
Iteration    Energy (Eh)           Delta-E    RMSDP     MaxDP     DIISErr   Damp  Time(sec)
-------------------------------------------------------------------------------------------
               ***  Starting incremental Fock matrix formation  ***
    1    -1602.9698625345067740     0.00e+00  1.74e-03  1.19e-01  4.15e-01  0.700  34.5
    2    -1603.3638589013849014    -3.94e-01  1.07e-03  5.37e-02  1.39e-01  0.700  17.9
                               ***Turning on AO-DIIS***
    3    -1603.5081159456926798    -1.44e-01  3.91e-04  1.45e-02  4.64e-02  0.700  17.5
    4    -1603.5991432787100166    -9.10e-02  6.72e-04  2.65e-02  2.25e-02  0.000  16.1
    5    -1603.8014821195388322    -2.02e-01  1.46e-04  6.55e-03  6.80e-03  0.000  16.7
                              *** Initializing SOSCF ***
---------------------------------------S-O-S-C-F--------------------------------------
Iteration    Energy (Eh)           Delta-E    RMSDP     MaxDP     MaxGrad    Time(sec)
--------------------------------------------------------------------------------------
    6    -1603.8024672252126948    -9.85e-04  4.48e-05  1.32e-03  2.02e-03    15.1
               *** Restarting incremental Fock matrix formation ***
    7    -1603.8024592592851150     7.97e-06  3.70e-05  1.42e-03  4.07e-04    34.6
    8    -1603.8024398631037002     1.94e-05  2.03e-05  8.74e-04  8.66e-04    22.7
    9    -1603.8024748924049163    -3.50e-05  3.01e-06  9.89e-05  2.59e-05    19.9
   10    -1603.8024748337479650     5.87e-08  1.30e-06  7.50e-05  3.62e-05    17.3
   11    -1603.8024750113795562    -1.78e-07  9.26e-07  3.37e-05  1.06e-05    14.1
   12    -1603.8024749858918767     2.55e-08  4.58e-07  1.97e-05  9.41e-06    13.8
   13    -1603.8024750093313742    -2.34e-08  1.56e-07  5.19e-06  1.19e-06    11.8
                  *** Gradient check signals convergence ***

               *****************************************************
               *                     SUCCESS                       *
               *           SCF CONVERGED AFTER  13 CYCLES          *
               *****************************************************

Recomputing exchange energy using gridx3       ... done (   54.504 sec)
Old exchange energy                            :    -37.912350113 Eh
New exchange energy                            :    -37.912360264 Eh
Exchange energy change after final integration :     -0.000010151 Eh
Total energy after final integration           :  -1603.802485160 Eh
             **** ENERGY FILE WAS UPDATED (1globalminimum.en.tmp) ****

----------------
TOTAL SCF ENERGY
----------------

Total Energy       :      -1603.80248516029155 Eh          -43641.68432 eV

Components:
Nuclear Repulsion  :       3224.36571585439242 Eh           87739.45172 eV
Electronic Energy  :      -4828.08235544000127 Eh         -131378.80006 eV
One Electron Energy:      -8581.51354025360160 Eh         -233514.85510 eV
Two Electron Energy:       3753.43118481360034 Eh          102136.05504 eV
CPCM Dielectric    :         -0.08583542372271 Eh              -2.33570 eV

Virial components:
Potential Energy   :      -3203.23314442641822 Eh          -87164.40521 eV
Kinetic Energy     :       1599.43065926612644 Eh           43522.72089 eV
Virial Ratio       :          2.00273336381846

DFT components:
N(Alpha)           :      106.000050979343 electrons
N(Beta)            :      106.000050979343 electrons
N(Total)           :      212.000101958686 electrons
E(X)               :     -150.673749089314 Eh       
E(C)               :       -9.482279361503 Eh       
E(XC)              :     -160.156028450817 Eh       

CPCM Solvation Model Properties:
Surface-charge          :         -1.02904420618464
Corrected charge        :         -1.00000000000000
Outlying charge corr.   :          0.00004268674053 Eh               0.00116 eV
Free-energy (cav+disp)  :  This term is not implemented in the current solvation scheme

---------------
SCF CONVERGENCE
---------------

  Last Energy change         ...    2.3439e-08  Tolerance :   1.0000e-08
  Last MAX-Density change    ...    5.1891e-06  Tolerance :   1.0000e-07
  Last RMS-Density change    ...    1.5610e-07  Tolerance :   5.0000e-09
  Last DIIS Error            ...    2.0214e-03  Tolerance :   5.0000e-07
  Last Orbital Gradient      ...    1.1902e-06  Tolerance :   1.0000e-05
  Last Orbital Rotation      ...    5.8950e-06  Tolerance :   1.0000e-05


----------------
ORBITAL ENERGIES
----------------

  NO   OCC          E(Eh)            E(eV) 
   0   2.0000     -77.225623     -2101.4160 
   1   2.0000     -19.196164      -522.3542 
   2   2.0000     -19.182343      -521.9781 
   3   2.0000     -19.174230      -521.7573 
   4   2.0000     -19.118494      -520.2407 
   5   2.0000     -19.102103      -519.7947 
   6   2.0000     -14.432010      -392.7150 
   7   2.0000     -14.356617      -390.6634 
   8   2.0000     -10.333006      -281.1754 
   9   2.0000     -10.278245      -279.6853 
  10   2.0000     -10.271799      -279.5099 
  11   2.0000     -10.271104      -279.4910 
  12   2.0000     -10.242069      -278.7009 
  13   2.0000     -10.236627      -278.5528 
  14   2.0000     -10.234326      -278.4902 
  15   2.0000     -10.231123      -278.4030 
  16   2.0000     -10.220215      -278.1062 
  17   2.0000     -10.218440      -278.0579 
  18   2.0000     -10.215403      -277.9753 
  19   2.0000     -10.201388      -277.5939 
  20   2.0000     -10.200674      -277.5744 
  21   2.0000     -10.197454      -277.4868 
  22   2.0000     -10.197403      -277.4854 
  23   2.0000     -10.195814      -277.4422 
  24   2.0000     -10.189577      -277.2725 
  25   2.0000     -10.188209      -277.2353 
  26   2.0000     -10.165838      -276.6265 
  27   2.0000     -10.165655      -276.6215 
  28   2.0000      -6.707886      -182.5308 
  29   2.0000      -4.870101      -132.5222 
  30   2.0000      -4.869890      -132.5164 
  31   2.0000      -4.868346      -132.4744 
  32   2.0000      -1.146007       -31.1844 
  33   2.0000      -1.129711       -30.7410 
  34   2.0000      -1.074740       -29.2452 
  35   2.0000      -1.051521       -28.6133 
  36   2.0000      -1.040895       -28.3242 
  37   2.0000      -1.014347       -27.6018 
  38   2.0000      -0.963144       -26.2085 
  39   2.0000      -0.913551       -24.8590 
  40   2.0000      -0.877500       -23.8780 
  41   2.0000      -0.849421       -23.1139 
  42   2.0000      -0.821020       -22.3411 
  43   2.0000      -0.791178       -21.5290 
  44   2.0000      -0.783726       -21.3263 
  45   2.0000      -0.774908       -21.0863 
  46   2.0000      -0.770624       -20.9697 
  47   2.0000      -0.733403       -19.9569 
  48   2.0000      -0.725636       -19.7456 
  49   2.0000      -0.710419       -19.3315 
  50   2.0000      -0.696527       -18.9535 
  51   2.0000      -0.684690       -18.6314 
  52   2.0000      -0.668654       -18.1950 
  53   2.0000      -0.657501       -17.8915 
  54   2.0000      -0.650404       -17.6984 
  55   2.0000      -0.613398       -16.6914 
  56   2.0000      -0.603931       -16.4338 
  57   2.0000      -0.569402       -15.4942 
  58   2.0000      -0.563222       -15.3260 
  59   2.0000      -0.559174       -15.2159 
  60   2.0000      -0.553600       -15.0642 
  61   2.0000      -0.545732       -14.8501 
  62   2.0000      -0.541501       -14.7350 
  63   2.0000      -0.520311       -14.1584 
[...]
134:   3048.89   0.002790   14.10  0.000286  ( 0.010903 -0.005185  0.011825)
135:   3053.77   0.016376   82.76  0.001674  ( 0.031207  0.007639 -0.025323)
136:   3085.68   0.003511   17.75  0.000355  (-0.014325  0.011899  0.002885)
137:   3092.20   0.003908   19.75  0.000394  (-0.012943 -0.014384  0.004474)
138:   3105.67   0.016304   82.39  0.001638  ( 0.003010  0.037410  0.015153)
139:   3107.90   0.000092    0.46  0.000009  ( 0.001083  0.002496 -0.001340)
140:   3109.38   0.008126   41.06  0.000816  (-0.011265  0.022341  0.013765)
141:   3109.54   0.009171   46.34  0.000920  ( 0.009878  0.021165 -0.019359)
142:   3112.59   0.006250   31.59  0.000627  ( 0.023080  0.002503 -0.009365)
143:   3117.72   0.003992   20.17  0.000400  ( 0.003358  0.017278  0.009475)
144:   3145.55   0.007617   38.50  0.000756  ( 0.012638  0.024209 -0.003152)
145:   3156.29   0.006859   34.66  0.000678  (-0.005060  0.009841  0.023574)
146:   3182.03   0.001243    6.28  0.000122  ( 0.011017 -0.000659 -0.000242)
147:   3201.52   0.001493    7.55  0.000146  ( 0.003784 -0.004313  0.010613)
148:   3202.42   0.000211    1.07  0.000021  (-0.002244 -0.003889  0.000624)
149:   3210.93   0.000876    4.43  0.000085  ( 0.000742 -0.006751  0.006244)
150:   3215.17   0.000298    1.51  0.000029  (-0.000788 -0.003928  0.003588)
151:   3223.96   0.001801    9.10  0.000174  (-0.004816  0.005157 -0.011159)
152:   3230.40   0.005128   25.92  0.000495  (-0.015939 -0.015321  0.002573)
153:   3232.91   0.000215    1.09  0.000021  ( 0.001623 -0.002549  0.003408)
154:   3238.43   0.002940   14.86  0.000283  (-0.008222 -0.013409  0.005990)
155:   3260.11   0.000196    0.99  0.000019  (-0.002046 -0.003786 -0.000444)

* The epsilon (eps) is given for a Dirac delta lineshape.
** The dipole moment derivative (T) already includes vibrational overlap.

The first frequency considered to be a vibration is 8
The total number of vibrations considered is 148


--------------------------
THERMOCHEMISTRY AT 298.15K
--------------------------

Temperature         ...   298.15 K
Pressure            ...     1.00 atm
Total Mass          ...   403.39 AMU
Quasi RRHO          ...     True
Cut-Off Frequency   ...     1.00 cm^-1

Throughout the following assumptions are being made:
  (1) The electronic state is orbitally nondegenerate
  (2) There are no thermally accessible electronically excited states
  (3) Hindered rotations indicated by low frequency modes are not
      treated as such but are treated as vibrations and this may
      cause some error
  (4) All equations used are the standard statistical mechanics
      equations for an ideal gas
  (5) All vibrations are strictly harmonic

freq.      27.78  E(vib)   ...       0.55 
freq.      31.92  E(vib)   ...       0.55 
freq.      39.63  E(vib)   ...       0.54 
freq.      48.95  E(vib)   ...       0.53 
freq.      56.14  E(vib)   ...       0.52 
freq.      65.08  E(vib)   ...       0.50 
freq.      74.25  E(vib)   ...       0.49 
freq.      77.32  E(vib)   ...       0.49 
freq.      92.54  E(vib)   ...       0.47 
freq.      95.13  E(vib)   ...       0.47 
freq.     107.32  E(vib)   ...       0.45 
freq.     116.70  E(vib)   ...       0.44 
freq.     139.44  E(vib)   ...       0.42 
freq.     145.02  E(vib)   ...       0.41 
freq.     168.55  E(vib)   ...       0.38 
freq.     176.79  E(vib)   ...       0.38 
freq.     208.25  E(vib)   ...       0.34 
freq.     211.00  E(vib)   ...       0.34 
freq.     217.24  E(vib)   ...       0.34 
freq.     237.69  E(vib)   ...       0.32 
freq.     249.41  E(vib)   ...       0.31 
freq.     260.65  E(vib)   ...       0.30 
freq.     267.43  E(vib)   ...       0.29 
freq.     268.82  E(vib)   ...       0.29 
freq.     307.74  E(vib)   ...       0.26 
freq.     326.95  E(vib)   ...       0.24 
freq.     350.25  E(vib)   ...       0.23 
freq.     381.24  E(vib)   ...       0.21 
freq.     385.22  E(vib)   ...       0.20 
freq.     393.94  E(vib)   ...       0.20 
freq.     412.47  E(vib)   ...       0.19 
freq.     428.69  E(vib)   ...       0.18 
freq.     442.10  E(vib)   ...       0.17 
freq.     455.46  E(vib)   ...       0.16 
freq.     464.65  E(vib)   ...       0.16 
freq.     472.96  E(vib)   ...       0.15 
freq.     492.63  E(vib)   ...       0.14 
freq.     502.57  E(vib)   ...       0.14 
freq.     523.82  E(vib)   ...       0.13 
freq.     528.88  E(vib)   ...       0.13 
freq.     542.80  E(vib)   ...       0.12 
freq.     562.80  E(vib)   ...       0.11 
freq.     603.89  E(vib)   ...       0.10 
freq.     617.39  E(vib)   ...       0.09 
freq.     652.80  E(vib)   ...       0.08 
freq.     662.03  E(vib)   ...       0.08 
freq.     702.03  E(vib)   ...       0.07 
freq.     704.67  E(vib)   ...       0.07 
freq.     715.42  E(vib)   ...       0.07 
freq.     729.48  E(vib)   ...       0.06 
freq.     747.19  E(vib)   ...       0.06 
freq.     768.51  E(vib)   ...       0.06 
freq.     774.46  E(vib)   ...       0.05 
freq.     780.95  E(vib)   ...       0.05 
freq.     808.12  E(vib)   ...       0.05 
freq.     808.21  E(vib)   ...       0.05 
freq.     816.77  E(vib)   ...       0.05 
freq.     817.81  E(vib)   ...       0.05 
freq.     819.68  E(vib)   ...       0.05 
freq.     847.93  E(vib)   ...       0.04 
freq.     916.60  E(vib)   ...       0.03 
freq.     922.46  E(vib)   ...       0.03 
freq.     935.26  E(vib)   ...       0.03 
freq.     945.17  E(vib)   ...       0.03 
freq.     953.58  E(vib)   ...       0.03 
freq.     959.09  E(vib)   ...       0.03 
freq.     977.49  E(vib)   ...       0.03 
freq.     986.59  E(vib)   ...       0.02 
freq.     995.63  E(vib)   ...       0.02 
freq.    1012.99  E(vib)   ...       0.02 
freq.    1037.65  E(vib)   ...       0.02 
freq.    1062.64  E(vib)   ...       0.02 
freq.    1080.14  E(vib)   ...       0.02 
freq.    1096.00  E(vib)   ...       0.02 
freq.    1110.78  E(vib)   ...       0.01 
freq.    1113.50  E(vib)   ...       0.01 
freq.    1115.12  E(vib)   ...       0.01 
freq.    1126.25  E(vib)   ...       0.01 
freq.    1129.89  E(vib)   ...       0.01 
freq.    1133.36  E(vib)   ...       0.01 
freq.    1167.24  E(vib)   ...       0.01 
freq.    1182.08  E(vib)   ...       0.01 
freq.    1187.07  E(vib)   ...       0.01 
freq.    1191.73  E(vib)   ...       0.01 
freq.    1203.68  E(vib)   ...       0.01 
freq.    1206.12  E(vib)   ...       0.01 
freq.    1215.23  E(vib)   ...       0.01 
freq.    1245.74  E(vib)   ...       0.01 
freq.    1254.16  E(vib)   ...       0.01 
freq.    1257.85  E(vib)   ...       0.01 
freq.    1277.54  E(vib)   ...       0.01 
freq.    1301.52  E(vib)   ...       0.01 
freq.    1325.41  E(vib)   ...       0.01 
freq.    1326.42  E(vib)   ...       0.01 
freq.    1339.78  E(vib)   ...       0.01 
freq.    1361.34  E(vib)   ...       0.01 
freq.    1390.61  E(vib)   ...       0.00 
freq.    1403.10  E(vib)   ...       0.00 
freq.    1410.47  E(vib)   ...       0.00 
freq.    1412.21  E(vib)   ...       0.00 
freq.    1421.35  E(vib)   ...       0.00 
freq.    1423.07  E(vib)   ...       0.00 
freq.    1423.75  E(vib)   ...       0.00 
freq.    1439.69  E(vib)   ...       0.00 
freq.    1450.00  E(vib)   ...       0.00 
freq.    1457.18  E(vib)   ...       0.00 
freq.    1471.50  E(vib)   ...       0.00 
freq.    1485.26  E(vib)   ...       0.00 
freq.    1487.42  E(vib)   ...       0.00 
freq.    1490.06  E(vib)   ...       0.00 
freq.    1490.90  E(vib)   ...       0.00 
freq.    1494.16  E(vib)   ...       0.00 
freq.    1495.97  E(vib)   ...       0.00 
freq.    1497.90  E(vib)   ...       0.00 
freq.    1499.39  E(vib)   ...       0.00 
freq.    1517.23  E(vib)   ...       0.00 
freq.    1520.10  E(vib)   ...       0.00 
freq.    1529.84  E(vib)   ...       0.00 
freq.    1540.02  E(vib)   ...       0.00 
freq.    1561.09  E(vib)   ...       0.00 
freq.    1573.68  E(vib)   ...       0.00 
freq.    1591.22  E(vib)   ...       0.00 
freq.    1622.06  E(vib)   ...       0.00 
freq.    1778.29  E(vib)   ...       0.00 
freq.    3040.64  E(vib)   ...       0.00 
freq.    3044.57  E(vib)   ...       0.00 
freq.    3048.89  E(vib)   ...       0.00 
freq.    3053.77  E(vib)   ...       0.00 
freq.    3085.68  E(vib)   ...       0.00 
freq.    3092.20  E(vib)   ...       0.00 
freq.    3105.67  E(vib)   ...       0.00 
freq.    3107.90  E(vib)   ...       0.00 
freq.    3109.38  E(vib)   ...       0.00 
freq.    3109.54  E(vib)   ...       0.00 
freq.    3112.59  E(vib)   ...       0.00 
freq.    3117.72  E(vib)   ...       0.00 
freq.    3145.55  E(vib)   ...       0.00 
freq.    3156.29  E(vib)   ...       0.00 
freq.    3182.03  E(vib)   ...       0.00 
freq.    3201.52  E(vib)   ...       0.00 
freq.    3202.42  E(vib)   ...       0.00 
freq.    3210.93  E(vib)   ...       0.00 
freq.    3215.17  E(vib)   ...       0.00 
freq.    3223.96  E(vib)   ...       0.00 
freq.    3230.40  E(vib)   ...       0.00 
freq.    3232.91  E(vib)   ...       0.00 
freq.    3238.43  E(vib)   ...       0.00 
freq.    3260.11  E(vib)   ...       0.00 

------------
INNER ENERGY
------------

The inner energy is: U= E(el) + E(ZPE) + E(vib) + E(rot) + E(trans)
    E(el)   - is the total energy from the electronic structure calculation
              = E(kin-el) + E(nuc-el) + E(el-el) + E(nuc-nuc)
    E(ZPE)  - the the zero temperature vibrational energy from the frequency calculation
    E(vib)  - the the finite temperature correction to E(ZPE) due to population
              of excited vibrational states
    E(rot)  - is the rotational thermal energy
    E(trans)- is the translational thermal energy

Summary of contributions to the inner energy U:
Electronic energy                ...  -1603.72676985 Eh
Zero point energy                ...      0.41643649 Eh     261.32 kcal/mol
Thermal vibrational correction   ...      0.02390820 Eh      15.00 kcal/mol
Thermal rotational correction    ...      0.00141627 Eh       0.89 kcal/mol
Thermal translational correction ...      0.00141627 Eh       0.89 kcal/mol
-----------------------------------------------------------------------
Total thermal energy                  -1603.28359261 Eh


Summary of corrections to the electronic energy:
(perhaps to be used in another calculation)
Total thermal correction                  0.02674075 Eh      16.78 kcal/mol
Non-thermal (ZPE) correction              0.41643649 Eh     261.32 kcal/mol
-----------------------------------------------------------------------
Total correction                          0.44317724 Eh     278.10 kcal/mol


--------
ENTHALPY
--------

The enthalpy is H = U + kB*T
                kB is Boltzmann's constant
Total thermal energy              ...  -1603.28359261 Eh 
Thermal Enthalpy correction       ...      0.00094421 Eh       0.59 kcal/mol
-----------------------------------------------------------------------
Total Enthalpy                    ...  -1603.28264840 Eh


Note: Only C1 symmetry has been detected, increase convergence thresholds 
      if your molecule has a higher symmetry. Symmetry factor of 1.0 is   
      used for the rotational entropy correction. 
 

Note: Rotational entropy computed according to Herzberg 
Infrared and Raman Spectra, Chapter V,1, Van Nostrand Reinhold, 1945 
Point Group:  C1, Symmetry Number:   1  
Rotational constants in cm-1:     0.006988     0.006136     0.004335 

Vibrational entropy computed according to the QRRHO of S. Grimme
Chem.Eur.J. 2012 18 9955 using a reference frequency of 100.0 cm-1


-------
ENTROPY
-------

The entropy contributions are T*S = T*(S(el)+S(vib)+S(rot)+S(trans))
     S(el)   - electronic entropy
     S(vib)  - vibrational entropy
     S(rot)  - rotational entropy
     S(trans)- translational entropy
The entropies will be listed as multiplied by the temperature to get
units of energy

Electronic entropy                ...      0.00000000 Eh      0.00 kcal/mol
Vibrational entropy               ...      0.04245542 Eh     26.64 kcal/mol
Rotational entropy                ...      0.01682742 Eh     10.56 kcal/mol
Translational entropy             ...      0.02084658 Eh     13.08 kcal/mol
-----------------------------------------------------------------------
Final entropy term                ...      0.08012941 Eh     50.28 kcal/mol

In case the symmetry of your molecule has not been determined correctly
or in case you have a reason to use a different symmetry number we print 
out the resulting rotational entropy values for sn=1,12:

 non-linear molecules -----------------------------------
|  sn= 1 | S(rot)=       0.01682742 Eh     10.56 kcal/mol|
|  sn= 2 | S(rot)=       0.01617296 Eh     10.15 kcal/mol|
|  sn= 3 | S(rot)=       0.01579013 Eh      9.91 kcal/mol|
|  sn= 4 | S(rot)=       0.01551850 Eh      9.74 kcal/mol|
|  sn= 5 | S(rot)=       0.01530781 Eh      9.61 kcal/mol|
|  sn= 6 | S(rot)=       0.01513567 Eh      9.50 kcal/mol|
|  sn= 7 | S(rot)=       0.01499012 Eh      9.41 kcal/mol|
|  sn= 8 | S(rot)=       0.01486405 Eh      9.33 kcal/mol|
|  sn= 9 | S(rot)=       0.01475284 Eh      9.26 kcal/mol|
|  sn=10 | S(rot)=       0.01465336 Eh      9.20 kcal/mol|
|  sn=11 | S(rot)=       0.01456337 Eh      9.14 kcal/mol|
|  sn=12 | S(rot)=       0.01448121 Eh      9.09 kcal/mol|
 linear molecules ---------------------------------------
|  Dinfh | S(rot)=       0.01046317 Eh      6.57 kcal/mol|
|  Cinfv | S(rot)=       0.01111763 Eh      6.98 kcal/mol|
 --------------------------------------------------------


-------------------
GIBBS FREE ENERGY
-------------------

The Gibbs free energy is G = H - T*S

Total enthalpy                    ...  -1603.28264840 Eh 
Total entropy correction          ...     -0.08012941 Eh    -50.28 kcal/mol
-----------------------------------------------------------------------
Final Gibbs free energy         ...  -1603.36277781 Eh

For completeness - the Gibbs free energy minus the electronic energy
G-E(el)                           ...      0.36399204 Eh    228.41 kcal/mol



--------------------------------
SUGGESTED CITATIONS FOR THIS RUN
--------------------------------

Below you find a list of papers that are relevant to this ORCA run
We neither can nor want to force you to cite these papers, but we appreciate if you do
You receive ORCA, which is the product of decades of hard work by many enthusiastic individuals, for free
The only thing we kindly ask in return is that you cite our papers,
We deeply appreciate it, if you show your appreciation for ORCA by not just citing the generic ORCA reference.

Please note that relegating all ORCA citations to the supporting information does *not* help us.
SI sections are not indexed - citations you put there will not count into any citation statistics
But we need these citations in order to attract the funding resources that allow us to do what we are doing

Therefore, if you are a happy ORCA user, please consider citing a few of the papers listed below in the main body of your paper

In addition to the list printed below, the program has created the file 1globalminimum.bibtex that contains the list in bibtex format
You can import this file easily into all common literature databanks and citation aid programs


List of essential papers. We consider these as the minimum necessary citations

  1. Neese,F.
     Software update: the ORCA program system, version 5.0
     WIRES Comput. Molec. Sci., 2022 12(1)e1606
     doi.org/10.1002/wcms.1606

List of papers to cite with high priority. The work reported in these papers was absolutely
necessary for this run to complete.
Our perspective: the developers of density functionals and basis sets usually get cited in chemistry papers
Good! But without the algorithms to do something with them, the functionals or basis sets would not do anything.
Hence, in our opinion, the algorithm design and method developments papers are equally worthy of getting cited

  1. Neese,F.; Olbrich,G.
     Efficient use of the resolution of the identity approximation in time-dependent density functional calculations with hybrid density functionals
     Chem. Phys. Lett., 2002 362 170-178
     doi.org/10.1016/s0009-2614(02)01053-9
  2. Neese,F.
     An improvement of the resolution of the identity approximation for the formation of the Coulomb matrix
     J. Comp. Chem., 2003 24(14)1740-1747
     doi.org/10.1002/jcc.10318
  3. Neese,F.; Wennmohs,F.; Hansen,A.; Becker,U.
     Efficient, approximate and parallel Hartree-Fock and hybrid DFT calculations. A 'chain-of-spheres' algorithm for the Hartree-Fock exchange
     Chem. Phys., 2009 356(1-3)98-109
     doi.org/10.1016/j.chemphys.2008.10.036
  4. Petrenko,T.; Kossmann,S.; Neese,F.
     Efficient time-dependent density functional theory approximations for hybrid density functionals: Analytical gradients and parallelization
     J. Chem. Phys., 2011 134 054116
     doi.org/10.1063/1.3533441
  5. Bykov,D.; Petrenko,T.; Izsak,R.; Kossmann,S.; Becker,U.; Valeev,E.; Neese,F.
     Efficient implementation of the analytic second derivatives of Hartree-Fock and hybrid DFT energies: a detailed analysis of different approximations
     Molec. Phys., 2015 113 1961-1977
     doi.org/10.1080/00268976.2015.1025114
  6. Garcia-Rates,M.; Neese,F.
     Effect of the Solute Cavity on the Solvation Energy and its Derivatives within the Framework of the Gaussian Charge Scheme
     J. Comput. Chem., 2020 41 922-939
     doi.org/10.1002/jcc.26139
  7. Helmich-Paris,B.; de Souza,B.; Neese,F.; Izsák,R.
     An improved chain of spheres for exchange algorithm
     J. Chem. Phys., 2021 155 104109
     doi.org/doi: 10.1063/5.0058766.
  8. Neese,F.
     The SHARK Integral Generation and Digestion System
     J. Comp. Chem., 2022  1-16
     doi.org/10.1002/jcc.26942

List of suggested additional citations. These are papers that are important in the 'surrounding' of 
of this run, or papers that preceded the highly important papers. If you like your results we are grateful for a citation.

  1. Izsak,R.; Neese,F.
     An overlap fitted chain of spheres exchange method
     J. Chem. Phys., 2011 135 144105
     doi.org/10.1063/1.3646921
  2. Izsak,R.; Hansen,A.; Neese,F.
     The resolution of identity and chain of spheres approximations for the LPNO-CCSD singles Fock term
     Molec. Phys., 2012 110 2413-2417
     doi.org/10.1080/00268976.2012.687466
  3. Neese,F.
     The ORCA program system
     WIRES Comput. Molec. Sci., 2012 2(1)73-78
     doi.org/10.1002/wcms.81
  4. Izsak,R.; Neese,F.; Klopper,W.
     Robust fitting techniques in the chain of spheres approximation to the Fock exchange: The role of the complementary space
     J. Chem. Phys., 2013 139 
     doi.org/10.1063/1.4819264
  5. Neese,F.
     Software update: the ORCA program system, version 4.0
     WIRES Comput. Molec. Sci., 2018 8(1)1-6
     doi.org/10.1002/wcms.1327
  6. Neese,F.; Wennmohs,F.; Becker,U.; Riplinger,C.
     The ORCA quantum chemistry program package
     J. Chem. Phys., 2020 152 Art. No. L224108
     doi.org/10.1063/5.0004608

List of optional additional citations

  1. Neese,F.
     Approximate second-order SCF convergence for spin unrestricted wavefunctions
     Chem. Phys. Lett., 2000 325(1-3)93-98
     doi.org/10.1016/s0009-2614(00)00662-x

Timings for individual modules:

Sum of individual times          ...   260466.539 sec (=4341.109 min)
Startup calculation              ...      209.724 sec (=   3.495 min)   0.1 %
SCF iterations                   ...     6065.250 sec (= 101.087 min)   2.3 %
Property integrals               ...       18.019 sec (=   0.300 min)   0.0 %
Property calculations            ...        0.147 sec (=   0.002 min)   0.0 %
CIS module                       ...    16283.714 sec (= 271.395 min)   6.3 %
Geometry relaxation              ...        1.025 sec (=   0.017 min)   0.0 %
Numerical frequency calculation  ...   237888.661 sec (=3964.811 min)  91.3 %
                             ****ORCA TERMINATED NORMALLY****
TOTAL RUN TIME: 3 days 0 hours 8 minutes 38 seconds 471 msec
