
                                 *****************
                                 * O   R   C   A *
                                 *****************

                                            #,                                       
                                            ###                                      
                                            ####                                     
                                            #####                                    
                                            ######                                   
                                           ########,                                 
                                     ,,################,,,,,                         
                               ,,#################################,,                 
                          ,,##########################################,,             
                       ,#########################################, ''#####,          
                    ,#############################################,,   '####,        
                  ,##################################################,,,,####,       
                ,###########''''           ''''###############################       
              ,#####''   ,,,,##########,,,,          '''####'''          '####       
            ,##' ,,,,###########################,,,                        '##       
           ' ,,###''''                  '''############,,,                           
         ,,##''                                '''############,,,,        ,,,,,,###''
      ,#''                                            '''#######################'''  
     '                                                          ''''####''''         
             ,#######,   #######,   ,#######,      ##                                
            ,#'     '#,  ##    ##  ,#'     '#,    #''#        ######   ,####,        
            ##       ##  ##   ,#'  ##            #'  '#       #        #'  '#        
            ##       ##  #######   ##           ,######,      #####,   #    #        
            '#,     ,#'  ##    ##  '#,     ,#' ,#      #,         ##   #,  ,#        
             '#######'   ##     ##  '#######'  #'      '#     #####' # '####'        



                  #######################################################
                  #                        -***-                        #
                  #          Department of theory and spectroscopy      #
                  #    Directorship and core code : Frank Neese         #
                  #        Max Planck Institute fuer Kohlenforschung    #
                  #                Kaiser Wilhelm Platz 1               #
                  #                 D-45470 Muelheim/Ruhr               #
                  #                      Germany                        #
                  #                                                     #
                  #                  All rights reserved                #
                  #                        -***-                        #
                  #######################################################


                         Program Version 5.0.4 -  RELEASE  -


 With contributions from (in alphabetic order):
   Daniel Aravena         : Magnetic Suceptibility
   Michael Atanasov       : Ab Initio Ligand Field Theory (pilot matlab implementation)
   Alexander A. Auer      : GIAO ZORA, VPT2 properties, NMR spectrum
   Ute Becker             : Parallelization
   Giovanni Bistoni       : ED, misc. LED, open-shell LED, HFLD
   Martin Brehm           : Molecular dynamics
   Dmytro Bykov           : SCF Hessian
   Vijay G. Chilkuri      : MRCI spin determinant printing, contributions to CSF-ICE
   Dipayan Datta          : RHF DLPNO-CCSD density
   Achintya Kumar Dutta   : EOM-CC, STEOM-CC
   Dmitry Ganyushin       : Spin-Orbit,Spin-Spin,Magnetic field MRCI
   Miquel Garcia          : C-PCM and meta-GGA Hessian, CC/C-PCM, Gaussian charge scheme
   Yang Guo               : DLPNO-NEVPT2, F12-NEVPT2, CIM, IAO-localization
   Andreas Hansen         : Spin unrestricted coupled pair/coupled cluster methods
   Benjamin Helmich-Paris : MC-RPA, TRAH-SCF, COSX integrals
   Lee Huntington         : MR-EOM, pCC
   Robert Izsak           : Overlap fitted RIJCOSX, COSX-SCS-MP3, EOM
   Marcus Kettner         : VPT2
   Christian Kollmar      : KDIIS, OOCD, Brueckner-CCSD(T), CCSD density, CASPT2, CASPT2-K
   Simone Kossmann        : Meta GGA functionals, TD-DFT gradient, OOMP2, MP2 Hessian
   Martin Krupicka        : Initial AUTO-CI
   Lucas Lang             : DCDCAS
   Marvin Lechner         : AUTO-CI (C++ implementation), FIC-MRCC
   Dagmar Lenk            : GEPOL surface, SMD
   Dimitrios Liakos       : Extrapolation schemes; Compound Job, initial MDCI parallelization
   Dimitrios Manganas     : Further ROCIS development; embedding schemes
   Dimitrios Pantazis     : SARC Basis sets
   Anastasios Papadopoulos: AUTO-CI, single reference methods and gradients
   Taras Petrenko         : DFT Hessian,TD-DFT gradient, ASA, ECA, R-Raman, ABS, FL, XAS/XES, NRVS
   Peter Pinski           : DLPNO-MP2, DLPNO-MP2 Gradient
   Christoph Reimann      : Effective Core Potentials
   Marius Retegan         : Local ZFS, SOC
   Christoph Riplinger    : Optimizer, TS searches, QM/MM, DLPNO-CCSD(T), (RO)-DLPNO pert. Triples
   Tobias Risthaus        : Range-separated hybrids, TD-DFT gradient, RPA, STAB
   Michael Roemelt        : Original ROCIS implementation
   Masaaki Saitow         : Open-shell DLPNO-CCSD energy and density
   Barbara Sandhoefer     : DKH picture change effects
   Avijit Sen             : IP-ROCIS
   Kantharuban Sivalingam : CASSCF convergence, NEVPT2, FIC-MRCI
   Bernardo de Souza      : ESD, SOC TD-DFT
   Georgi Stoychev        : AutoAux, RI-MP2 NMR, DLPNO-MP2 response
   Willem Van den Heuvel  : Paramagnetic NMR
   Boris Wezisla          : Elementary symmetry handling
   Frank Wennmohs         : Technical directorship


 We gratefully acknowledge several colleagues who have allowed us to
 interface, adapt or use parts of their codes:
   Stefan Grimme, W. Hujo, H. Kruse, P. Pracht,  : VdW corrections, initial TS optimization,
                  C. Bannwarth, S. Ehlert          DFT functionals, gCP, sTDA/sTD-DF
   Ed Valeev, F. Pavosevic, A. Kumar             : LibInt (2-el integral package), F12 methods
   Garnet Chan, S. Sharma, J. Yang, R. Olivares  : DMRG
   Ulf Ekstrom                                   : XCFun DFT Library
   Mihaly Kallay                                 : mrcc  (arbitrary order and MRCC methods)
   Jiri Pittner, Ondrej Demel                    : Mk-CCSD
   Frank Weinhold                                : gennbo (NPA and NBO analysis)
   Christopher J. Cramer and Donald G. Truhlar   : smd solvation model
   Lars Goerigk                                  : TD-DFT with DH, B97 family of functionals
   V. Asgeirsson, H. Jonsson                     : NEB implementation
   FAccTs GmbH                                   : IRC, NEB, NEB-TS, DLPNO-Multilevel, CI-OPT
                                                   MM, QMMM, 2- and 3-layer-ONIOM, Crystal-QMMM,
                                                   LR-CPCM, SF, NACMEs, symmetry and pop. for TD-DFT,
                                                   nearIR, NL-DFT gradient (VV10), updates on ESD,
                                                   ML-optimized integration grids
   S Lehtola, MJT Oliveira, MAL Marques          : LibXC Library
   Liviu Ungur et al                             : ANISO software


 Your calculation uses the libint2 library for the computation of 2-el integrals
 For citations please refer to: http://libint.valeyev.net

 Your ORCA version has been built with support for libXC version: 5.1.0
 For citations please refer to: https://tddft.org/programs/libxc/

 This ORCA versions uses:
   CBLAS   interface :  Fast vector & matrix operations
   LAPACKE interface :  Fast linear algebra routines
   SCALAPACK package :  Parallel linear algebra routines
   Shared memory     :  Shared parallel matrices
   BLAS/LAPACK       :  OpenBLAS 0.3.15  USE64BITINT DYNAMIC_ARCH NO_AFFINITY Zen SINGLE_THREADED
        Core in use  :  Zen
   Copyright (c) 2011-2014, The OpenBLAS Project


================================================================================

----- Orbital basis set information -----
Your calculation utilizes the basis: def2-TZVP(-f)
   F. Weigend and R. Ahlrichs, Phys. Chem. Chem. Phys. 7, 3297 (2005).

----- AuxJ basis set information -----
Your calculation utilizes the auxiliary basis: def2/J
   F. Weigend, Phys. Chem. Chem. Phys. 8, 1057 (2006).

----- AuxC basis set information -----
Your calculation utilizes the auxiliary basis: def2-TZVP/C
  H-La, Hf-Rn : A. Hellweg, C. Hattig, S. Hofener and W. Klopper, Theor. Chem. Acc. 117, 587 (2007).
        Ce-Lu : J. Chmela and M. E. Harding, Mol. Phys. (2018).

================================================================================
                                        WARNINGS
                       Please study these warnings very carefully!
================================================================================

INFO   : Checking CIS options ...

WARNING: (CIS/TDDFT): Analytic excited state gradients requested
  ===> : turning on equilibrium dielectric conditions.

WARNING: Geometry Optimization
  ===> : Switching off AutoStart
         For restart on a previous wavefunction, please use MOREAD

WARNING: CIS/ROCIS methods need fully converged wavefunctions
  ===> : Setting SCFConvForced true
         You can overwrite this default with %scf ConvForced false 


INFO   : the flag for use of the SHARK integral package has been found!

================================================================================
                                       INPUT FILE
================================================================================
NAME = NMU-DCP_ES.inp
|  1> ! B3LYP/G OPT Def2-TZVP(-f) Def2-TZVP/C Def2/J RIJCOSX TightSCF CPCM(Water) AllPop SOSCF
|  2> %maxcore 3000
|  3> 
|  4> %scf
|  5> 	MaxIter 125
|  6> 	CNVDIIS 1
|  7> 	CNVSOSCF 1 
|  8> end
|  9> 
| 10> %tddft
| 11>     NRoots 1
| 12>     IRoot 1
| 13> end 
| 14> 
| 15> * xyz 1 1
| 16> 
| 17>   C   -6.42875536518090     -1.42538530577979      0.23531391923856
| 18>   C   -6.51020708173099     -2.93295434893579      0.11530198757181
| 19>   C   -5.44051677661122     -3.56808046160425      0.99130956999687
| 20>   H   -6.37161249753711     -3.22819996577248     -0.92730354846814
| 21>   H   -7.50608364108595     -3.25214333025517      0.42130036170985
| 22>   C   -4.08882632952667     -3.01845118567456      0.64429407750189
| 23>   H   -5.43059191035100     -4.65342699406728      0.89661399650077
| 24>   H   -5.65270251117045     -3.34016895051581      2.04233144833671
| 25>   C   -3.96674359254634     -1.65509005850156      0.16976888686221
| 26>   N   -5.06829810731111     -0.90977565695133      0.00233771031546
| 27>   H   -6.73646621441652     -1.09198873093231      1.23184254395672
| 28>   H   -7.07406367605259     -0.93421057722737     -0.49049429512879
| 29>   C   -4.99068077528763      0.52146433245072     -0.33563847772060
| 30>   C   -3.80972936414614      0.81677142113044     -1.23808617927717
| 31>   H   -4.91551060147254      1.07800873130847      0.60381729901749
| 32>   H   -5.93185081266812      0.78831712743541     -0.80883183764178
| 33>   C   -2.52648773802080      0.32503875522283     -0.58471715629520
| 34>   H   -3.76208056431330      1.89087732425014     -1.41427851336595
| 35>   H   -3.95792058169331      0.32750569083356     -2.20323435131789
| 36>   C   -2.67502701197867     -1.09080731835548     -0.10570367149741
| 37>   H   -2.28112036088318      0.96022257414458      0.27404354201406
| 38>   H   -1.68541028744563      0.39446074196447     -1.27247449150791
| 39>   C   -2.95696012300127     -3.76449611116743      0.79219041679467
| 40>   C   -1.57845567845848     -1.89783482624865      0.08482702913918
| 41>   C   -1.67863933531489     -3.23540762011351      0.51925021088281
| 42>   O   -0.35124921856876     -1.35537417234607     -0.17162142425573
| 43>   C   0.82354290830387     -2.06727642693005     -0.06375590347474
| 44>   C   -0.48664439316882     -3.99425198260117      0.65652004600055
| 45>   C   0.72845772614263     -3.45975997812734      0.37333281494548
| 46>   O   1.84505555457527     -1.48531134336466     -0.34332050551389
| 47>   C   1.98194370558940     -4.25364322874213      0.48272719644293
| 48>   C   2.90231345847164     -4.00919420587472      1.52418088379086
| 49>   C   2.19428000555041     -5.24477641205298     -0.42722063326907
| 50>   N   3.34199745042668     -6.05983225995088     -0.35585652904231
| 51>   C   4.25754716242084     -5.82980296425537      0.68737747990743
| 52>   C   4.04386572896483     -4.84262181058744      1.59103767973658
| 53>   H   1.51521225241843     -5.44973649567297     -1.23800388102997
| 54>   H   4.77393930936164     -4.70765701400624      2.37699878727399
| 55>   H   5.11062222317344     -6.48556365452548      0.70286499251775
| 56>   H   2.73511815042820     -3.22830908815413      2.24767984296877
| 57>   H   -3.02899728859384     -4.78814887657105      1.13658746422148
| 58>   H   -0.56246516726039     -5.02294692399127      0.98608652385388
| 59>   P   3.60896629058646     -7.25771316246651     -1.52709098597510
| 60>   O   4.85982962952775     -7.97822005113877     -1.23215850425517
| 61>   O   3.48656728699596     -6.54719273701541     -2.93331354510149
| 62>   O   2.27580747192578     -8.10302425657292     -1.60447740687857
| 63>   C   1.94562479689374     -9.04473792215683     -0.53188135891785
| 64>   C   4.49028480503156     -5.56456561365211     -3.35394400026601
| 65>   C   0.67193775222732     -9.75848970910148     -0.91466140459996
| 66>   H   1.82459920934154     -8.48031939102863      0.39361401633473
| 67>   H   2.77743426390409     -9.73938068806426     -0.41920387562481
| 68>   H   4.05344818441518     -4.58168381806788     -3.18085617480821
| 69>   C   4.80839381845465     -5.78829061729668     -4.81320325448292
| 70>   H   5.38266690980080     -5.66886712979825     -2.73655869301476
| 71>   H   -0.15087896599498     -9.05260017959032     -1.03378082862677
| 72>   H   0.40844144094962    -10.46494396654173     -0.12555498558001
| 73>   H   0.80121292285679    -10.31310618945485     -1.84485035915677
| 74>   H   3.91009790399633     -5.70181415828769     -5.42601921704605
| 75>   H   5.25024474301748     -6.77303126450421     -4.96872250614060
| 76>   H   5.52331290603921     -5.03224756414525     -5.14330222855187
| 77> *
| 78> 
| 79> 
| 80>                          ****END OF INPUT****
================================================================================

                       *****************************
                       * Geometry Optimization Run *
                       *****************************

Geometry optimization settings:
Update method            Update   .... BFGS
Choice of coordinates    CoordSys .... Z-matrix Internals
Initial Hessian          InHess   .... Almoef's Model

Convergence Tolerances:
Energy Change            TolE     ....  5.0000e-06 Eh
Max. Gradient            TolMAXG  ....  3.0000e-04 Eh/bohr
RMS Gradient             TolRMSG  ....  1.0000e-04 Eh/bohr
Max. Displacement        TolMAXD  ....  4.0000e-03 bohr
RMS Displacement         TolRMSD  ....  2.0000e-03 bohr
Strict Convergence                ....  False
------------------------------------------------------------------------------
                        ORCA OPTIMIZATION COORDINATE SETUP
------------------------------------------------------------------------------

The optimization will be done in new redundant internal coordinates
Making redundant internal coordinates   ...  (new redundants) done
Evaluating the initial hessian          ...  (Almloef) done
Evaluating the coordinates              ...  done
Calculating the B-matrix                .... done
Calculating the G-matrix                .... done
Diagonalizing the G-matrix              .... done
Small eigenvalue found = 1.368e-03
Small eigenvalue found = 2.046e-03
Small eigenvalue found = 3.305e-03
Small eigenvalue found = 6.808e-03
Small eigenvalue found = 8.268e-03
Small eigenvalue found = 1.462e-02
Small eigenvalue found = 1.940e-02
Small eigenvalue found = 2.319e-02
The first mode is                       ....  175
The number of degrees of freedom        ....  174

    -----------------------------------------------------------------
                    Redundant Internal Coordinates


    -----------------------------------------------------------------
         Definition                    Initial Value    Approx d2E/dq
    -----------------------------------------------------------------
      1. B(C   1,C   0)                  1.5145         0.395420   
      2. B(C   2,C   1)                  1.5215         0.385401   
      3. B(H   3,C   1)                  1.0924         0.356899   
      4. B(H   4,C   1)                  1.0896         0.360594   
      5. B(C   5,C   2)                  1.4999         0.417315   
      6. B(H   6,C   2)                  1.0895         0.360742   
      7. B(H   7,C   2)                  1.0962         0.352015   
      8. B(C   8,C   5)                  1.4487         0.503537   
      9. B(N   9,C   0)                  1.4734         0.411888   
     10. B(N   9,C   8)                  1.3405         0.671188   
     11. B(H  10,C   0)                  1.0949         0.353615   
     12. B(H  11,C   0)                  1.0883         0.362309   
     13. B(C  12,N   9)                  1.4727         0.413058   
     14. B(C  13,C  12)                  1.5153         0.394241   
     15. B(H  14,C  12)                  1.0945         0.354173   
     16. B(H  15,C  12)                  1.0867         0.364488   
     17. B(C  16,C  13)                  1.5216         0.385220   
     18. B(H  17,C  13)                  1.0895         0.360758   
     19. B(H  18,C  13)                  1.0922         0.357230   
     20. B(C  19,C  16)                  1.5020         0.413979   
     21. B(C  19,C   8)                  1.4363         0.527157   
     22. B(H  20,C  16)                  1.0960         0.352298   
     23. B(H  21,C  16)                  1.0887         0.361840   
     24. B(C  22,C   5)                  1.3637         0.688267   
     25. B(C  23,C  19)                  1.3748         0.660687   
     26. B(C  24,C  23)                  1.4099         0.580717   
     27. B(C  24,C  22)                  1.4102         0.580208   
     28. B(O  25,C  23)                  1.3660         0.611086   
     29. B(C  26,O  25)                  1.3779         0.585058   
     30. B(C  27,C  24)                  1.4197         0.560220   
     31. B(C  28,C  26)                  1.4626         0.478591   
     32. B(C  28,C  27)                  1.3573         0.704463   
     33. B(O  29,C  26)                  1.2084         1.090291   
     34. B(C  30,C  28)                  1.4878         0.436275   
     35. B(C  31,C  30)                  1.4112         0.578001   
     36. B(C  32,C  30)                  1.3621         0.692119   
     37. B(N  33,C  32)                  1.4095         0.520930   
     38. B(C  34,N  33)                  1.4069         0.525833   
     39. B(C  35,C  34)                  1.3553         0.709790   
     40. B(C  35,C  31)                  1.4150         0.569980   
     41. B(H  36,C  32)                  1.0773         0.377340   
     42. B(H  37,C  35)                  1.0812         0.371954   
     43. B(H  38,C  34)                  1.0761         0.378960   
     44. B(H  39,C  31)                  1.0776         0.376906   
     45. B(H  40,C  22)                  1.0824         0.370249   
     46. B(H  41,C  27)                  1.0829         0.369676   
     47. B(P  42,N  33)                  1.6965         0.610140   
     48. B(O  43,P  42)                  1.4734         1.384784   
     49. B(O  44,P  42)                  1.5803         0.934955   
     50. B(O  45,P  42)                  1.5805         0.934337   
     51. B(C  46,O  45)                  1.4650         0.424789   
     52. B(C  47,O  44)                  1.4663         0.422862   
     53. B(C  48,C  46)                  1.5094         0.402966   
     54. B(H  49,C  46)                  1.0908         0.359096   
     55. B(H  50,C  46)                  1.0896         0.360688   
     56. B(H  51,C  47)                  1.0894         0.360864   
     57. B(C  52,C  47)                  1.5102         0.401770   
     58. B(H  53,C  47)                  1.0901         0.359925   
     59. B(H  54,C  48)                  1.0906         0.359254   
     60. B(H  55,C  48)                  1.0914         0.358227   
     61. B(H  56,C  48)                  1.0907         0.359214   
     62. B(H  57,C  52)                  1.0909         0.358975   
     63. B(H  58,C  52)                  1.0905         0.359474   
     64. B(H  59,C  52)                  1.0916         0.357938   
     65. A(C   1,C   0,N   9)          112.6722         0.370775   
     66. A(C   1,C   0,H  11)          111.3769         0.327695   
     67. A(C   1,C   0,H  10)          111.1058         0.326387   
     68. A(H  10,C   0,H  11)          107.6323         0.290289   
     69. A(N   9,C   0,H  10)          107.2677         0.326618   
     70. A(N   9,C   0,H  11)          106.5046         0.327928   
     71. A(C   0,C   1,H   3)          109.7445         0.326884   
     72. A(C   2,C   1,H   3)          110.3331         0.325506   
     73. A(H   3,C   1,H   4)          107.7463         0.290494   
     74. A(C   2,C   1,H   4)          111.0135         0.326058   
     75. A(C   0,C   1,C   2)          109.3950         0.368870   
     76. A(C   0,C   1,H   4)          108.5715         0.327439   
     77. A(C   5,C   2,H   7)          108.6683         0.329054   
     78. A(H   6,C   2,H   7)          106.9907         0.289886   
     79. A(C   1,C   2,C   5)          110.3292         0.372305   
     80. A(C   5,C   2,H   6)          109.6780         0.330388   
     81. A(C   1,C   2,H   6)          111.8511         0.326080   
     82. A(C   1,C   2,H   7)          109.2173         0.324770   
     83. A(C   2,C   5,C   8)          119.7743         0.389979   
     84. A(C   2,C   5,C  22)          121.4965         0.412040   
     85. A(C   8,C   5,C  22)          118.7134         0.426068   
     86. A(C   5,C   8,N   9)          119.6628         0.421399   
     87. A(N   9,C   8,C  19)          119.7787         0.424866   
     88. A(C   5,C   8,C  19)          120.5535         0.406325   
     89. A(C   0,N   9,C   8)          122.9857         0.404009   
     90. A(C   8,N   9,C  12)          121.7164         0.404211   
     91. A(C   0,N   9,C  12)          115.1540         0.371230   
     92. A(H  14,C  12,H  15)          107.9609         0.290635   
     93. A(C  13,C  12,H  15)          111.5790         0.327858   
     94. A(N   9,C  12,H  15)          107.0343         0.328406   
     95. A(N   9,C  12,C  13)          111.5400         0.370765   
     96. A(N   9,C  12,H  14)          107.5067         0.326855   
     97. A(C  13,C  12,H  14)          111.0114         0.326311   
     98. A(C  12,C  13,H  17)          108.8152         0.327303   
     99. A(C  12,C  13,C  16)          109.7878         0.368652   
    100. A(H  17,C  13,H  18)          107.7381         0.290557   
    101. A(C  16,C  13,H  18)          110.4324         0.325531   
    102. A(C  12,C  13,H  18)          109.4650         0.326773   
    103. A(C  16,C  13,H  17)          110.5576         0.326057   
    104. A(H  20,C  16,H  21)          106.5638         0.290061   
    105. A(C  19,C  16,H  21)          109.7533         0.330116   
    106. A(C  13,C  16,H  21)          111.0792         0.326218   
    107. A(C  13,C  16,H  20)          109.7529         0.324788   
    108. A(C  13,C  16,C  19)          110.9866         0.371761   
    109. A(C  19,C  16,H  20)          108.5760         0.328662   
    110. A(C  16,C  19,C  23)          121.2416         0.408483   
    111. A(C   8,C  19,C  23)          117.3964         0.426446   
    112. A(C   8,C  19,C  16)          121.3620         0.392566   
    113. A(C   5,C  22,C  24)          121.7465         0.437057   
    114. A(C   5,C  22,H  40)          119.7785         0.360928   
    115. A(C  24,C  22,H  40)          118.4724         0.350617   
    116. A(C  24,C  23,O  25)          119.8947         0.425090   
    117. A(C  19,C  23,O  25)          117.2218         0.435049   
    118. A(C  19,C  23,C  24)          122.8828         0.433918   
    119. A(C  23,C  24,C  27)          118.5039         0.421278   
    120. A(C  22,C  24,C  27)          122.8100         0.421212   
    121. A(C  22,C  24,C  23)          118.6853         0.423925   
    122. A(C  23,O  25,C  26)          123.0989         0.422887   
    123. A(C  28,C  26,O  29)          125.6337         0.455737   
    124. A(O  25,C  26,O  29)          116.9872         0.469636   
    125. A(O  25,C  26,C  28)          117.3787         0.407541   
    126. A(C  24,C  27,C  28)          121.3979         0.436128   
    127. A(C  28,C  27,H  41)          120.0176         0.362268   
    128. A(C  24,C  27,H  41)          118.5820         0.348458   
    129. A(C  27,C  28,C  30)          121.9229         0.417028   
    130. A(C  26,C  28,C  30)          118.3749         0.389545   
    131. A(C  26,C  28,C  27)          119.7003         0.423973   
    132. A(C  31,C  30,C  32)          121.1563         0.437196   
    133. A(C  28,C  30,C  32)          118.0658         0.415718   
    134. A(C  28,C  30,C  31)          120.7521         0.402661   
    135. A(C  35,C  31,H  39)          121.3507         0.350619   
    136. A(C  30,C  31,H  39)          121.3209         0.351448   
    137. A(C  30,C  31,C  35)          117.3227         0.422226   
    138. A(N  33,C  32,H  36)          116.1916         0.343301   
    139. A(C  30,C  32,H  36)          122.8846         0.362443   
    140. A(C  30,C  32,N  33)          120.9219         0.426300   
    141. A(C  34,N  33,P  42)          121.6659         0.443005   
    142. A(C  32,N  33,P  42)          120.0993         0.442255   
    143. A(C  32,N  33,C  34)          118.2214         0.403354   
    144. A(C  35,C  34,H  38)          124.0050         0.364275   
    145. A(N  33,C  34,H  38)          115.2715         0.344088   
    146. A(N  33,C  34,C  35)          120.7234         0.428950   
    147. A(C  34,C  35,H  37)          117.9802         0.363115   
    148. A(C  31,C  35,H  37)          120.3702         0.349837   
    149. A(C  31,C  35,C  34)          121.6491         0.438083   
    150. A(O  44,P  42,O  45)           97.5605         0.571529   
    151. A(O  43,P  42,O  45)          117.6708         0.616393   
    152. A(N  33,P  42,O  45)          106.1840         0.527096   
    153. A(O  43,P  42,O  44)          117.6301         0.616472   
    154. A(N  33,P  42,O  44)          106.5403         0.527162   
    155. A(N  33,P  42,O  43)          109.9198         0.567901   
    156. A(P  42,O  44,C  47)          120.2364         0.460143   
    157. A(P  42,O  45,C  46)          119.8719         0.460469   
    158. A(H  49,C  46,H  50)          109.0784         0.290786   
    159. A(C  48,C  46,H  50)          111.6521         0.328476   
    160. A(O  45,C  46,H  50)          108.2682         0.329357   
    161. A(C  48,C  46,H  49)          111.4839         0.328236   
    162. A(O  45,C  46,H  49)          108.2760         0.329117   
    163. A(O  45,C  46,C  48)          107.9674         0.373965   
    164. A(C  52,C  47,H  53)          111.1391         0.328200   
    165. A(H  51,C  47,H  53)          108.9403         0.290914   
    166. A(O  44,C  47,H  53)          109.4983         0.328995   
    167. A(H  51,C  47,C  52)          111.8168         0.328341   
    168. A(O  44,C  47,C  52)          108.7906         0.373481   
    169. A(O  44,C  47,H  51)          106.5321         0.329137   
    170. A(H  55,C  48,H  56)          108.4268         0.290489   
    171. A(H  54,C  48,H  56)          108.9894         0.290619   
    172. A(C  46,C  48,H  56)          110.8994         0.328254   
    173. A(H  54,C  48,H  55)          108.4069         0.290494   
    174. A(C  46,C  48,H  55)          109.0537         0.328105   
    175. A(C  46,C  48,H  54)          110.9938         0.328260   
    176. A(H  58,C  52,H  59)          108.4777         0.290485   
    177. A(H  57,C  52,H  59)          108.3320         0.290422   
    178. A(C  47,C  52,H  59)          109.1195         0.327901   
    179. A(H  57,C  52,H  58)          108.9739         0.290617   
    180. A(C  47,C  52,H  58)          110.9121         0.328132   
    181. A(C  47,C  52,H  57)          110.9546         0.328057   
    182. D(C   2,C   1,C   0,H  11)    171.2631         0.012416   
    183. D(H   3,C   1,C   0,H  10)    170.0655         0.012416   
    184. D(H   4,C   1,C   0,N   9)    172.9370         0.012416   
    185. D(H   3,C   1,C   0,N   9)    -69.5322         0.012416   
    186. D(H   4,C   1,C   0,H  10)     52.5347         0.012416   
    187. D(C   2,C   1,C   0,N   9)     51.6497         0.012416   
    188. D(H   3,C   1,C   0,H  11)     50.0813         0.012416   
    189. D(C   2,C   1,C   0,H  10)    -68.7527         0.012416   
    190. D(H   4,C   1,C   0,H  11)    -67.4495         0.012416   
    191. D(H   6,C   2,C   1,C   0)   -177.1424         0.011821   
    192. D(C   5,C   2,C   1,H   4)   -174.5646         0.011821   
    193. D(H   7,C   2,C   1,C   0)     64.6157         0.011821   
    194. D(C   5,C   2,C   1,H   3)     66.0578         0.011821   
    195. D(H   6,C   2,C   1,H   3)    -56.3178         0.011821   
    196. D(C   5,C   2,C   1,C   0)    -54.7668         0.011821   
    197. D(H   7,C   2,C   1,H   3)   -174.5597         0.011821   
    198. D(H   7,C   2,C   1,H   4)    -55.1821         0.011821   
    199. D(H   6,C   2,C   1,H   4)     63.0598         0.011821   
    200. D(C  22,C   5,C   2,H   7)     90.2267         0.012883   
    201. D(C  22,C   5,C   2,H   6)    -26.4145         0.012883   
    202. D(C  22,C   5,C   2,C   1)   -150.0584         0.012883   
    203. D(C   8,C   5,C   2,H   6)    155.0488         0.012883   
    204. D(C   8,C   5,C   2,H   7)    -88.3101         0.012883   
    205. D(C   8,C   5,C   2,C   1)     31.4048         0.012883   
    206. D(C  19,C   8,C   5,C  22)     -1.6021         0.017273   
    207. D(C  19,C   8,C   5,C   2)    176.9754         0.017273   
    208. D(N   9,C   8,C   5,C   2)     -2.2093         0.017273   
    209. D(N   9,C   8,C   5,C  22)    179.2133         0.017273   
    210. D(C   8,N   9,C   0,H  10)     98.9740         0.014471   
    211. D(C   8,N   9,C   0,C   1)    -23.6089         0.014471   
    212. D(C   8,N   9,C   0,H  11)   -146.0057         0.014471   
    213. D(C  12,N   9,C   8,C  19)     -5.9495         0.036978   
    214. D(C   0,N   9,C   8,C  19)    178.6225         0.036978   
    215. D(C  12,N   9,C   8,C   5)    173.2415         0.036978   
    216. D(C  12,N   9,C   0,H  11)     38.2905         0.014471   
    217. D(C  12,N   9,C   0,H  10)    -76.7298         0.014471   
    218. D(C   0,N   9,C   8,C   5)     -2.1865         0.036978   
    219. D(C  12,N   9,C   0,C   1)    160.6872         0.014471   
    220. D(H  15,C  12,N   9,C   8)    156.9866         0.014553   
    221. D(H  15,C  12,N   9,C   0)    -27.2495         0.014553   
    222. D(H  14,C  12,N   9,C   8)    -87.2394         0.014553   
    223. D(H  14,C  12,N   9,C   0)     88.5244         0.014553   
    224. D(C  13,C  12,N   9,C   8)     34.6783         0.014553   
    225. D(C  13,C  12,N   9,C   0)   -149.5579         0.014553   
    226. D(H  18,C  13,C  12,H  15)    -54.0395         0.012345   
    227. D(H  18,C  13,C  12,H  14)   -174.5129         0.012345   
    228. D(H  18,C  13,C  12,N   9)     65.6163         0.012345   
    229. D(H  17,C  13,C  12,H  15)     63.4639         0.012345   
    230. D(H  17,C  13,C  12,H  14)    -57.0096         0.012345   
    231. D(H  17,C  13,C  12,N   9)   -176.8803         0.012345   
    232. D(C  16,C  13,C  12,H  15)   -175.4158         0.012345   
    233. D(C  16,C  13,C  12,H  14)     64.1108         0.012345   
    234. D(C  16,C  13,C  12,N   9)    -55.7600         0.012345   
    235. D(H  21,C  16,C  13,H  18)     50.9866         0.011811   
    236. D(H  21,C  16,C  13,H  17)    -68.1535         0.011811   
    237. D(H  21,C  16,C  13,C  12)    171.7806         0.011811   
    238. D(H  20,C  16,C  13,H  18)    168.5703         0.011811   
    239. D(H  20,C  16,C  13,H  17)     49.4301         0.011811   
    240. D(H  20,C  16,C  13,C  12)    -70.6357         0.011811   
    241. D(C  19,C  16,C  13,H  18)    -71.4116         0.011811   
    242. D(C  19,C  16,C  13,H  17)    169.4483         0.011811   
    243. D(C  19,C  16,C  13,C  12)     49.3824         0.011811   
    244. D(C  16,C  19,C   8,C   5)   -179.3602         0.018963   
    245. D(C  23,C  19,C  16,H  21)     34.0750         0.012684   
    246. D(C  23,C  19,C  16,C  13)    157.2396         0.012684   
    247. D(C   8,C  19,C  16,H  21)   -145.8576         0.012684   
    248. D(C   8,C  19,C  16,H  20)     98.0233         0.012684   
    249. D(C   8,C  19,C  16,C  13)    -22.6929         0.012684   
    250. D(C  23,C  19,C   8,N   9)    179.8884         0.018963   
    251. D(C  23,C  19,C  16,H  20)    -82.0441         0.012684   
    252. D(C  23,C  19,C   8,C   5)      0.7048         0.018963   
    253. D(C  16,C  19,C   8,N   9)     -0.1765         0.018963   
    254. D(H  40,C  22,C   5,C   8)   -179.4213         0.033270   
    255. D(H  40,C  22,C   5,C   2)      2.0268         0.033270   
    256. D(C  24,C  22,C   5,C   8)      1.1713         0.033270   
    257. D(C  24,C  22,C   5,C   2)   -177.3806         0.033270   
    258. D(O  25,C  23,C  19,C  16)      0.3941         0.030464   
    259. D(O  25,C  23,C  19,C   8)   -179.6708         0.030464   
    260. D(C  24,C  23,C  19,C  16)   -179.2984         0.030464   
    261. D(C  24,C  23,C  19,C   8)      0.6367         0.030464   
    262. D(C  27,C  24,C  23,O  25)     -1.0789         0.023172   
    263. D(C  27,C  24,C  23,C  19)    178.6057         0.023172   
    264. D(C  22,C  24,C  23,O  25)    179.2379         0.023172   
    265. D(C  22,C  24,C  23,C  19)     -1.0775         0.023172   
    266. D(C  27,C  24,C  22,H  40)      1.0354         0.023129   
    267. D(C  27,C  24,C  22,C   5)   -179.5497         0.023129   
    268. D(C  23,C  24,C  22,H  40)   -179.2959         0.023129   
    269. D(C  23,C  24,C  22,C   5)      0.1190         0.023129   
    270. D(C  26,O  25,C  23,C  24)      1.9005         0.027341   
    271. D(C  26,O  25,C  23,C  19)   -177.8016         0.027341   
    272. D(O  29,C  26,O  25,C  23)    178.5383         0.024920   
    273. D(C  28,C  26,O  25,C  23)     -1.2526         0.024920   
    274. D(H  41,C  27,C  24,C  23)   -179.7465         0.021499   
    275. D(H  41,C  27,C  24,C  22)     -0.0772         0.021499   
    276. D(C  28,C  27,C  24,C  23)     -0.3217         0.021499   
    277. D(C  28,C  27,C  24,C  22)    179.3475         0.021499   
    278. D(C  30,C  28,C  27,H  41)      0.8632         0.034990   
    279. D(C  30,C  28,C  27,C  24)   -178.5535         0.034990   
    280. D(C  26,C  28,C  27,H  41)   -179.6440         0.034990   
    281. D(C  26,C  28,C  27,C  24)      0.9394         0.034990   
    282. D(C  30,C  28,C  26,O  29)     -0.4475         0.015595   
    283. D(C  30,C  28,C  26,O  25)    179.3233         0.015595   
    284. D(C  27,C  28,C  26,O  29)   -179.9583         0.015595   
    285. D(C  27,C  28,C  26,O  25)     -0.1875         0.015595   
    286. D(C  32,C  30,C  28,C  27)     69.9814         0.012993   
    287. D(C  32,C  30,C  28,C  26)   -109.5179         0.012993   
    288. D(C  31,C  30,C  28,C  27)   -108.1912         0.012993   
    289. D(C  31,C  30,C  28,C  26)     72.3095         0.012993   
    290. D(H  39,C  31,C  30,C  32)   -179.7631         0.022946   
    291. D(H  39,C  31,C  30,C  28)     -1.6474         0.022946   
    292. D(C  35,C  31,C  30,C  32)     -0.6189         0.022946   
    293. D(C  35,C  31,C  30,C  28)    177.4968         0.022946   
    294. D(H  36,C  32,C  30,C  31)   -179.4296         0.033674   
    295. D(H  36,C  32,C  30,C  28)      2.4055         0.033674   
    296. D(N  33,C  32,C  30,C  31)      0.0645         0.033674   
    297. D(N  33,C  32,C  30,C  28)   -178.1003         0.033674   
    298. D(P  42,N  33,C  32,H  36)      1.3599         0.021518   
    299. D(P  42,N  33,C  32,C  30)   -178.1667         0.021518   
    300. D(C  34,N  33,C  32,H  36)   -179.9495         0.021518   
    301. D(C  34,N  33,C  32,C  30)      0.5239         0.021518   
    302. D(H  38,C  34,N  33,P  42)     -1.9577         0.021942   
    303. D(H  38,C  34,N  33,C  32)    179.3733         0.021942   
    304. D(C  35,C  34,N  33,P  42)    178.1235         0.021942   
    305. D(C  35,C  34,N  33,C  32)     -0.5455         0.021942   
    306. D(H  37,C  35,C  31,C  30)   -179.1540         0.022286   
    307. D(C  34,C  35,C  31,H  39)    179.7431         0.022286   
    308. D(C  34,C  35,C  31,C  30)      0.5992         0.022286   
    309. D(H  37,C  35,C  34,H  38)     -0.1725         0.035567   
    310. D(H  37,C  35,C  34,N  33)    179.7390         0.035567   
    311. D(C  31,C  35,C  34,H  38)   -179.9313         0.035567   
    312. D(C  31,C  35,C  34,N  33)     -0.0199         0.035567   
    313. D(H  37,C  35,C  31,H  39)     -0.0101         0.022286   
    314. D(O  45,P  42,N  33,C  34)    130.0857         0.007456   
    315. D(O  45,P  42,N  33,C  32)    -51.2698         0.007456   
    316. D(O  44,P  42,N  33,C  34)   -126.6698         0.007456   
    317. D(O  44,P  42,N  33,C  32)     51.9746         0.007456   
    318. D(O  43,P  42,N  33,C  34)      1.8062         0.007456   
    319. D(O  43,P  42,N  33,C  32)   -179.5493         0.007456   
    320. D(C  47,O  44,P  42,O  45)    177.3944         0.015044   
    321. D(C  47,O  44,P  42,O  43)    -55.8616         0.015044   
    322. D(C  47,O  44,P  42,N  33)     67.9604         0.015044   
    323. D(C  46,O  45,P  42,O  44)    176.0091         0.015025   
    324. D(C  46,O  45,P  42,O  43)     49.2938         0.015025   
    325. D(C  46,O  45,P  42,N  33)    -74.2628         0.015025   
    326. D(H  50,C  46,O  45,P  42)    -55.6875         0.014217   
    327. D(H  49,C  46,O  45,P  42)     62.4451         0.014217   
    328. D(C  48,C  46,O  45,P  42)   -176.7199         0.014217   
    329. D(H  53,C  47,O  44,P  42)     17.0863         0.014090   
    330. D(C  52,C  47,O  44,P  42)    138.7268         0.014090   
    331. D(H  51,C  47,O  44,P  42)   -100.5772         0.014090   
    332. D(H  56,C  48,C  46,H  49)    179.5551         0.012877   
    333. D(H  56,C  48,C  46,O  45)     60.7439         0.012877   
    334. D(H  55,C  48,C  46,H  50)     61.1739         0.012877   
    335. D(H  55,C  48,C  46,H  49)    -61.1144         0.012877   
    336. D(H  55,C  48,C  46,O  45)   -179.9255         0.012877   
    337. D(H  54,C  48,C  46,H  50)   -179.4623         0.012877   
    338. D(H  54,C  48,C  46,H  49)     58.2494         0.012877   
    339. D(H  56,C  48,C  46,H  50)    -58.1566         0.012877   
    340. D(H  54,C  48,C  46,O  45)    -60.5618         0.012877   
    341. D(H  59,C  52,C  47,H  53)    -61.7802         0.012803   
    342. D(H  59,C  52,C  47,H  51)     60.2003         0.012803   
    343. D(H  59,C  52,C  47,O  44)    177.5851         0.012803   
    344. D(H  58,C  52,C  47,H  53)     57.6627         0.012803   
    345. D(H  58,C  52,C  47,H  51)    179.6431         0.012803   
    346. D(H  58,C  52,C  47,O  44)    -62.9720         0.012803   
    347. D(H  57,C  52,C  47,H  53)    178.9307         0.012803   
    348. D(H  57,C  52,C  47,H  51)    -59.0888         0.012803   
    349. D(H  57,C  52,C  47,O  44)     58.2960         0.012803   
    -----------------------------------------------------------------

Number of atoms                         .... 60
Number of degrees of freedom            .... 349

         *************************************************************
         *                GEOMETRY OPTIMIZATION CYCLE   1            *
         *************************************************************
---------------------------------
CARTESIAN COORDINATES (ANGSTROEM)
---------------------------------
  C     -6.428755   -1.425385    0.235314
  C     -6.510207   -2.932954    0.115302
  C     -5.440517   -3.568080    0.991310
  H     -6.371612   -3.228200   -0.927304
  H     -7.506084   -3.252143    0.421300
  C     -4.088826   -3.018451    0.644294
  H     -5.430592   -4.653427    0.896614
  H     -5.652703   -3.340169    2.042331
  C     -3.966744   -1.655090    0.169769
  N     -5.068298   -0.909776    0.002338
  H     -6.736466   -1.091989    1.231843
  H     -7.074064   -0.934211   -0.490494
  C     -4.990681    0.521464   -0.335638
  C     -3.809729    0.816771   -1.238086
  H     -4.915511    1.078009    0.603817
  H     -5.931851    0.788317   -0.808832
  C     -2.526488    0.325039   -0.584717
  H     -3.762081    1.890877   -1.414279
  H     -3.957921    0.327506   -2.203234
  C     -2.675027   -1.090807   -0.105704
  H     -2.281120    0.960223    0.274044
  H     -1.685410    0.394461   -1.272474
  C     -2.956960   -3.764496    0.792190
  C     -1.578456   -1.897835    0.084827
  C     -1.678639   -3.235408    0.519250
  O     -0.351249   -1.355374   -0.171621
  C      0.823543   -2.067276   -0.063756
  C     -0.486644   -3.994252    0.656520
  C      0.728458   -3.459760    0.373333
  O      1.845056   -1.485311   -0.343321
  C      1.981944   -4.253643    0.482727
  C      2.902313   -4.009194    1.524181
  C      2.194280   -5.244776   -0.427221
  N      3.341997   -6.059832   -0.355857
  C      4.257547   -5.829803    0.687377
  C      4.043866   -4.842622    1.591038
  H      1.515212   -5.449736   -1.238004
  H      4.773939   -4.707657    2.376999
  H      5.110622   -6.485564    0.702865
  H      2.735118   -3.228309    2.247680
  H     -3.028997   -4.788149    1.136587
  H     -0.562465   -5.022947    0.986087
  P      3.608966   -7.257713   -1.527091
  O      4.859830   -7.978220   -1.232159
  O      3.486567   -6.547193   -2.933314
  O      2.275807   -8.103024   -1.604477
  C      1.945625   -9.044738   -0.531881
  C      4.490285   -5.564566   -3.353944
  C      0.671938   -9.758490   -0.914661
  H      1.824599   -8.480319    0.393614
  H      2.777434   -9.739381   -0.419204
  H      4.053448   -4.581684   -3.180856
  C      4.808394   -5.788291   -4.813203
  H      5.382667   -5.668867   -2.736559
  H     -0.150879   -9.052600   -1.033781
  H      0.408441  -10.464944   -0.125555
  H      0.801213  -10.313106   -1.844850
  H      3.910098   -5.701814   -5.426019
  H      5.250245   -6.773031   -4.968723
  H      5.523313   -5.032248   -5.143302

----------------------------
CARTESIAN COORDINATES (A.U.)
----------------------------
  NO LB      ZA    FRAG     MASS         X           Y           Z
   0 C     6.0000    0    12.011  -12.148587   -2.693588    0.444679
   1 C     6.0000    0    12.011  -12.302508   -5.542480    0.217889
   2 C     6.0000    0    12.011  -10.281087   -6.742695    1.873304
   3 H     1.0000    0     1.008  -12.040603   -6.100414   -1.752350
   4 H     1.0000    0     1.008  -14.184442   -6.145660    0.796142
   5 C     6.0000    0    12.011   -7.726762   -5.704046    1.217539
   6 H     1.0000    0     1.008  -10.262331   -8.793703    1.694355
   7 H     1.0000    0     1.008  -10.682060   -6.312005    3.859447
   8 C     6.0000    0    12.011   -7.496059   -3.127667    0.320817
   9 N     7.0000    0    14.007   -9.577695   -1.719227    0.004418
  10 H     1.0000    0     1.008  -12.730076   -2.063560    2.327845
  11 H     1.0000    0     1.008  -13.368043   -1.765402   -0.926900
  12 C     6.0000    0    12.011   -9.431020    0.985425   -0.634265
  13 C     6.0000    0    12.011   -7.199345    1.543474   -2.339644
  14 H     1.0000    0     1.008   -9.288969    2.037141    1.141049
  15 H     1.0000    0     1.008  -11.209574    1.489703   -1.528471
  16 C     6.0000    0    12.011   -4.774370    0.614234   -1.104955
  17 H     1.0000    0     1.008   -7.109302    3.573240   -2.672599
  18 H     1.0000    0     1.008   -7.479386    0.618896   -4.163510
  19 C     6.0000    0    12.011   -5.055068   -2.061327   -0.199751
  20 H     1.0000    0     1.008   -4.310693    1.814558    0.517867
  21 H     1.0000    0     1.008   -3.184964    0.745423   -2.404628
  22 C     6.0000    0    12.011   -5.587845   -7.113867    1.497023
  23 C     6.0000    0    12.011   -2.982849   -3.586388    0.160300
  24 C     6.0000    0    12.011   -3.172169   -6.114034    0.981241
  25 O     8.0000    0    15.999   -0.663765   -2.561286   -0.324317
  26 C     6.0000    0    12.011    1.556271   -3.906586   -0.120481
  27 C     6.0000    0    12.011   -0.919625   -7.548042    1.240643
  28 C     6.0000    0    12.011    1.376586   -6.537999    0.705497
  29 O     8.0000    0    15.999    3.486650   -2.806832   -0.648782
  30 C     6.0000    0    12.011    3.745331   -8.038221    0.912222
  31 C     6.0000    0    12.011    5.484578   -7.576279    2.880284
  32 C     6.0000    0    12.011    4.146588   -9.911191   -0.807330
  33 N     7.0000    0    14.007    6.315460  -11.451423   -0.672471
  34 C     6.0000    0    12.011    8.045598  -11.016731    1.298955
  35 C     6.0000    0    12.011    7.641799   -9.151229    3.006625
  36 H     1.0000    0     1.008    2.863336  -10.298509   -2.339488
  37 H     1.0000    0     1.008    9.021438   -8.896182    4.491877
  38 H     1.0000    0     1.008    9.657676  -12.255939    1.328222
  39 H     1.0000    0     1.008    5.168624   -6.100620    4.247499
  40 H     1.0000    0     1.008   -5.723975   -9.048290    2.147839
  41 H     1.0000    0     1.008   -1.062905   -9.491994    1.863433
  42 P    15.0000    0    30.974    6.819958  -13.715090   -2.885784
  43 O     8.0000    0    15.999    9.183747  -15.076651   -2.328442
  44 O     8.0000    0    15.999    6.588657  -12.372401   -5.543159
  45 O     8.0000    0    15.999    4.300653  -15.312497   -3.032023
  46 C     6.0000    0    12.011    3.676698  -17.092078   -1.005110
  47 C     6.0000    0    12.011    8.485409  -10.515505   -6.338036
  48 C     6.0000    0    12.011    1.269778  -18.440873   -1.728460
  49 H     1.0000    0     1.008    3.447993  -16.025481    0.743823
  50 H     1.0000    0     1.008    5.248590  -18.404762   -0.792181
  51 H     1.0000    0     1.008    7.659907   -8.658128   -6.010947
  52 C     6.0000    0    12.011    9.086547  -10.938284   -9.095636
  53 H     1.0000    0     1.008   10.171766  -10.712606   -5.171346
  54 H     1.0000    0     1.008   -0.285120  -17.106935   -1.953563
  55 H     1.0000    0     1.008    0.771842  -19.775878   -0.237265
  56 H     1.0000    0     1.008    1.514073  -19.488946   -3.486262
  57 H     1.0000    0     1.008    7.389014  -10.774867  -10.253690
  58 H     1.0000    0     1.008    9.921525  -12.799174   -9.389525
  59 H     1.0000    0     1.008   10.437549   -9.509570   -9.719433

--------------------------------
INTERNAL COORDINATES (ANGSTROEM)
--------------------------------
 C      0   0   0     0.000000000000     0.00000000     0.00000000
 C      1   0   0     1.514530179875     0.00000000     0.00000000
 C      2   1   0     1.521516287237   109.39501128     0.00000000
 H      2   1   3     1.092430655378   109.74447333   238.81817395
 H      2   1   3     1.089626877534   108.57150084   121.28735981
 C      3   2   1     1.499859712683   110.32917493   305.23317807
 H      3   2   1     1.089514960953   111.85109984   182.85762255
 H      3   2   1     1.096181295036   109.21727210    64.61567818
 C      6   3   2     1.448734590706   119.77432073    31.40478800
 N      9   6   3     1.340503302882   119.66281089   357.79073636
 H      1   2   3     1.094946821878   111.10579931   291.24733115
 H      1   2   3     1.088334964104   111.37686974   171.26313139
 C     10   9   6     1.472650760083   121.71643673   173.24146764
 C     13  10   9     1.515342986306   111.54001686    34.67829127
 H     13  10   9     1.094517875312   107.50667228   272.76059979
 H     13  10   9     1.086702999594   107.03425888   156.98664978
 C     14  13  10     1.521644231065   109.78775226   304.23997555
 H     14  13  10     1.089503390465   108.81521284   183.11965367
 H     14  13  10     1.092177909406   109.46500682    65.61632775
 C      9   6   3     1.436256197811   120.55350050   176.97536571
 H     17  14  13     1.095962394676   109.75294968   289.36425670
 H     17  14  13     1.088687669742   111.07924757   171.78058031
 C      6   3   2     1.363663252971   121.49652085   209.94157287
 C     20   9   6     1.374795997914   117.39640316     0.70476234
 C     24  20   9     1.409915332502   122.88276749     0.63669123
 O     24  20   9     1.366039920894   117.22180295   180.32918288
 C     26  24  20     1.377888359780   123.09894210   182.19841716
 C     25  24  20     1.419697050858   118.50385223   178.60566855
 C     28  25  24     1.357331894208   121.39793313   359.67827682
 O     27  26  24     1.208440239191   116.98724603   178.53832421
 C     29  28  25     1.487765051001   121.92294699   181.44653588
 C     31  29  28     1.411191549610   120.75206303   251.80881365
 C     31  29  28     1.362144171569   118.06577776    69.98141842
 N     33  31  29     1.409490760466   120.92192365   181.89968985
 C     34  33  31     1.406940634654   118.22144116     0.52391010
 C     35  34  33     1.355281572927   120.72341862   359.45447227
 H     33  31  29     1.077270218687   122.88464167     2.40551026
 H     36  35  34     1.081183514336   117.98019858   179.73895858
 H     35  34  33     1.076103621975   115.27153135   179.37327387
 H     32  31  29     1.077583677512   121.32094790   358.35260531
 H     23   6   3     1.082434138237   119.77846033     2.02683347
 H     28  25  24     1.082855546945   118.58196396   180.25351198
 P     34  33  31     1.696461367475   120.09930278   181.83326944
 O     43  34  33     1.473354824238   109.91981542   180.45067295
 O     43  34  33     1.580279303433   106.54032433    51.97463344
 O     43  34  33     1.580459407809   106.18398058   308.73019798
 C     46  43  34     1.465028159777   119.87189682   285.73720292
 C     45  43  34     1.466265630571   120.23635603    67.96042038
 C     47  46  43     1.509384266676   107.96743318   183.28009519
 H     47  46  43     1.090759900591   108.27600364    62.44512133
 H     47  46  43     1.089555770430   108.26819979   304.31254532
 H     48  45  43     1.089422898843   106.53211264   259.42283604
 C     48  45  43     1.510193296467   108.79056868   138.72680262
 H     48  45  43     1.090132673023   109.49825349    17.08634446
 H     49  47  46     1.090640553455   110.99380568   299.43821122
 H     49  47  46     1.091419655518   109.05367256   180.07448359
 H     49  47  46     1.090670895000   110.89937669    60.74393773
 H     53  48  45     1.090851562710   110.95456479    58.29604598
 H     53  48  45     1.090473575762   110.91211914   297.02796545
 H     53  48  45     1.091639012079   109.11948065   177.58512620

---------------------------
INTERNAL COORDINATES (A.U.)
---------------------------
 C      0   0   0     0.000000000000     0.00000000     0.00000000
 C      1   0   0     2.862047261523     0.00000000     0.00000000
 C      2   1   0     2.875249091178   109.39501128     0.00000000
 H      2   1   3     2.064394758965   109.74447333   238.81817395
 H      2   1   3     2.059096386698   108.57150084   121.28735981
 C      3   2   1     2.834324096273   110.32917493   305.23317807
 H      3   2   1     2.058884895010   111.85109984   182.85762255
 H      3   2   1     2.071482440745   109.21727210    64.61567818
 C      6   3   2     2.737711617172   119.77432073    31.40478800
 N      9   6   3     2.533184124063   119.66281089   357.79073636
 H      1   2   3     2.069149624556   111.10579931   291.24733115
 H      1   2   3     2.056655024128   111.37686974   171.26313139
 C     10   9   6     2.782906627468   121.71643673   173.24146764
 C     13  10   9     2.863583243076   111.54001686    34.67829127
 H     13  10   9     2.068339033021   107.50667228   272.76059979
 H     13  10   9     2.053571058144   107.03425888   156.98664978
 C     14  13  10     2.875490869974   109.78775226   304.23997555
 H     14  13  10     2.058863029957   108.81521284   183.11965367
 H     14  13  10     2.063917138296   109.46500682    65.61632775
 C      9   6   3     2.714130872009   120.55350050   176.97536571
 H     17  14  13     2.071068779014   109.75294968   289.36425670
 H     17  14  13     2.057321541189   111.07924757   171.78058031
 C      6   3   2     2.576950087008   121.49652085   209.94157287
 C     20   9   6     2.597987926068   117.39640316     0.70476234
 C     24  20   9     2.664353850446   122.88276749     0.63669123
 O     24  20   9     2.581441338493   117.22180295   180.32918288
 C     26  24  20     2.603831643102   123.09894210   182.19841716
 C     25  24  20     2.682838619257   118.50385223   178.60566855
 C     28  25  24     2.564985552890   121.39793313   359.67827682
 O     27  26  24     2.283621101280   116.98724603   178.53832421
 C     29  28  25     2.811468498011   121.92294699   181.44653588
 C     31  29  28     2.666765551268   120.75206303   251.80881365
 C     31  29  28     2.574079439182   118.06577776    69.98141842
 N     33  31  29     2.663551525572   120.92192365   181.89968985
 C     34  33  31     2.658732486181   118.22144116     0.52391010
 C     35  34  33     2.561111007183   120.72341862   359.45447227
 H     33  31  29     2.035745685549   122.88464167     2.40551026
 H     36  35  34     2.043140742605   117.98019858   179.73895858
 H     35  34  33     2.033541137254   115.27153135   179.37327387
 H     32  31  29     2.036338036882   121.32094790   358.35260531
 H     23   6   3     2.045504079275   119.77846033     2.02683347
 H     28  25  24     2.046300426324   118.58196396   180.25351198
 P     34  33  31     3.205847381305   120.09930278   181.83326944
 O     43  34  33     2.784237115901   109.91981542   180.45067295
 O     43  34  33     2.986295098592   106.54032433    51.97463344
 O     43  34  33     2.986635446539   106.18398058   308.73019798
 C     46  43  34     2.768502000461   119.87189682   285.73720292
 C     45  43  34     2.770840481360   120.23635603    67.96042038
 C     47  46  43     2.852322894868   107.96743318   183.28009519
 H     47  46  43     2.061237489980   108.27600364    62.44512133
 H     47  46  43     2.058962013746   108.26819979   304.31254532
 H     48  45  43     2.058710922836   106.53211264   259.42283604
 C     48  45  43     2.853851739607   108.79056868   138.72680262
 H     48  45  43     2.060052201653   109.49825349    17.08634446
 H     49  47  46     2.061011956578   110.99380568   299.43821122
 H     49  47  46     2.062484246108   109.05367256   180.07448359
 H     49  47  46     2.061069293789   110.89937669    60.74393773
 H     53  48  45     2.061410706282   110.95456479    58.29604598
 H     53  48  45     2.060696414469   110.91211914   297.02796545
 H     53  48  45     2.062898769934   109.11948065   177.58512620

---------------------
BASIS SET INFORMATION
---------------------
There are 5 groups of distinct atoms

 Group   1 Type C   : 11s6p2d contracted to 5s3p2d pattern {62111/411/11}
 Group   2 Type H   : 5s1p contracted to 3s1p pattern {311/1}
 Group   3 Type N   : 11s6p2d contracted to 5s3p2d pattern {62111/411/11}
 Group   4 Type O   : 11s6p2d contracted to 5s3p2d pattern {62111/411/11}
 Group   5 Type P   : 14s9p3d contracted to 5s5p2d pattern {73211/51111/21}

Atom   0C    basis set group =>   1
Atom   1C    basis set group =>   1
Atom   2C    basis set group =>   1
Atom   3H    basis set group =>   2
Atom   4H    basis set group =>   2
Atom   5C    basis set group =>   1
Atom   6H    basis set group =>   2
Atom   7H    basis set group =>   2
Atom   8C    basis set group =>   1
Atom   9N    basis set group =>   3
Atom  10H    basis set group =>   2
Atom  11H    basis set group =>   2
Atom  12C    basis set group =>   1
Atom  13C    basis set group =>   1
Atom  14H    basis set group =>   2
Atom  15H    basis set group =>   2
Atom  16C    basis set group =>   1
Atom  17H    basis set group =>   2
Atom  18H    basis set group =>   2
Atom  19C    basis set group =>   1
Atom  20H    basis set group =>   2
Atom  21H    basis set group =>   2
Atom  22C    basis set group =>   1
Atom  23C    basis set group =>   1
Atom  24C    basis set group =>   1
Atom  25O    basis set group =>   4
Atom  26C    basis set group =>   1
Atom  27C    basis set group =>   1
Atom  28C    basis set group =>   1
Atom  29O    basis set group =>   4
Atom  30C    basis set group =>   1
Atom  31C    basis set group =>   1
Atom  32C    basis set group =>   1
Atom  33N    basis set group =>   3
Atom  34C    basis set group =>   1
Atom  35C    basis set group =>   1
Atom  36H    basis set group =>   2
Atom  37H    basis set group =>   2
Atom  38H    basis set group =>   2
Atom  39H    basis set group =>   2
Atom  40H    basis set group =>   2
Atom  41H    basis set group =>   2
Atom  42P    basis set group =>   5
Atom  43O    basis set group =>   4
Atom  44O    basis set group =>   4
Atom  45O    basis set group =>   4
Atom  46C    basis set group =>   1
Atom  47C    basis set group =>   1
Atom  48C    basis set group =>   1
Atom  49H    basis set group =>   2
Atom  50H    basis set group =>   2
Atom  51H    basis set group =>   2
Atom  52C    basis set group =>   1
Atom  53H    basis set group =>   2
Atom  54H    basis set group =>   2
Atom  55H    basis set group =>   2
Atom  56H    basis set group =>   2
Atom  57H    basis set group =>   2
Atom  58H    basis set group =>   2
Atom  59H    basis set group =>   2
---------------------------------
AUXILIARY/J BASIS SET INFORMATION
---------------------------------
There are 5 groups of distinct atoms

 Group   1 Type C   : 12s5p4d2f1g contracted to 6s4p3d1f1g pattern {711111/2111/211/2/1}
 Group   2 Type H   : 5s2p1d contracted to 3s1p1d pattern {311/2/1}
 Group   3 Type N   : 12s5p4d2f1g contracted to 6s4p3d1f1g pattern {711111/2111/211/2/1}
 Group   4 Type O   : 12s5p4d2f1g contracted to 6s4p3d1f1g pattern {711111/2111/211/2/1}
 Group   5 Type P   : 14s5p5d2f1g contracted to 8s4p3d1f1g pattern {71111111/2111/311/2/1}

Atom   0C    basis set group =>   1
Atom   1C    basis set group =>   1
Atom   2C    basis set group =>   1
Atom   3H    basis set group =>   2
Atom   4H    basis set group =>   2
Atom   5C    basis set group =>   1
Atom   6H    basis set group =>   2
Atom   7H    basis set group =>   2
Atom   8C    basis set group =>   1
Atom   9N    basis set group =>   3
Atom  10H    basis set group =>   2
Atom  11H    basis set group =>   2
Atom  12C    basis set group =>   1
Atom  13C    basis set group =>   1
Atom  14H    basis set group =>   2
Atom  15H    basis set group =>   2
Atom  16C    basis set group =>   1
Atom  17H    basis set group =>   2
Atom  18H    basis set group =>   2
Atom  19C    basis set group =>   1
Atom  20H    basis set group =>   2
Atom  21H    basis set group =>   2
Atom  22C    basis set group =>   1
Atom  23C    basis set group =>   1
Atom  24C    basis set group =>   1
Atom  25O    basis set group =>   4
Atom  26C    basis set group =>   1
Atom  27C    basis set group =>   1
Atom  28C    basis set group =>   1
Atom  29O    basis set group =>   4
Atom  30C    basis set group =>   1
Atom  31C    basis set group =>   1
Atom  32C    basis set group =>   1
Atom  33N    basis set group =>   3
Atom  34C    basis set group =>   1
Atom  35C    basis set group =>   1
Atom  36H    basis set group =>   2
Atom  37H    basis set group =>   2
Atom  38H    basis set group =>   2
Atom  39H    basis set group =>   2
Atom  40H    basis set group =>   2
Atom  41H    basis set group =>   2
Atom  42P    basis set group =>   5
Atom  43O    basis set group =>   4
Atom  44O    basis set group =>   4
Atom  45O    basis set group =>   4
Atom  46C    basis set group =>   1
Atom  47C    basis set group =>   1
Atom  48C    basis set group =>   1
Atom  49H    basis set group =>   2
Atom  50H    basis set group =>   2
Atom  51H    basis set group =>   2
Atom  52C    basis set group =>   1
Atom  53H    basis set group =>   2
Atom  54H    basis set group =>   2
Atom  55H    basis set group =>   2
Atom  56H    basis set group =>   2
Atom  57H    basis set group =>   2
Atom  58H    basis set group =>   2
Atom  59H    basis set group =>   2
---------------------------------
AUXILIARY/C BASIS SET INFORMATION
---------------------------------
There are 5 groups of distinct atoms

 Group   1 Type C   : 8s6p5d3f1g contracted to 8s6p4d3f1g pattern {11111111/111111/2111/111/1}
 Group   2 Type H   : 4s3p2d contracted to 4s2p1d pattern {1111/21/2}
 Group   3 Type N   : 8s6p5d3f1g contracted to 8s6p4d3f1g pattern {11111111/111111/2111/111/1}
 Group   4 Type O   : 8s6p5d3f1g contracted to 8s6p4d3f1g pattern {11111111/111111/2111/111/1}
 Group   5 Type P   : 10s7p7d5f2g contracted to 9s7p6d5f2g pattern {211111111/1111111/211111/11111/11}

Atom   0C    basis set group =>   1
Atom   1C    basis set group =>   1
Atom   2C    basis set group =>   1
Atom   3H    basis set group =>   2
Atom   4H    basis set group =>   2
Atom   5C    basis set group =>   1
Atom   6H    basis set group =>   2
Atom   7H    basis set group =>   2
Atom   8C    basis set group =>   1
Atom   9N    basis set group =>   3
Atom  10H    basis set group =>   2
Atom  11H    basis set group =>   2
Atom  12C    basis set group =>   1
Atom  13C    basis set group =>   1
Atom  14H    basis set group =>   2
Atom  15H    basis set group =>   2
Atom  16C    basis set group =>   1
Atom  17H    basis set group =>   2
Atom  18H    basis set group =>   2
Atom  19C    basis set group =>   1
Atom  20H    basis set group =>   2
Atom  21H    basis set group =>   2
Atom  22C    basis set group =>   1
Atom  23C    basis set group =>   1
Atom  24C    basis set group =>   1
Atom  25O    basis set group =>   4
Atom  26C    basis set group =>   1
Atom  27C    basis set group =>   1
Atom  28C    basis set group =>   1
Atom  29O    basis set group =>   4
Atom  30C    basis set group =>   1
Atom  31C    basis set group =>   1
Atom  32C    basis set group =>   1
Atom  33N    basis set group =>   3
Atom  34C    basis set group =>   1
Atom  35C    basis set group =>   1
Atom  36H    basis set group =>   2
Atom  37H    basis set group =>   2
Atom  38H    basis set group =>   2
Atom  39H    basis set group =>   2
Atom  40H    basis set group =>   2
Atom  41H    basis set group =>   2
Atom  42P    basis set group =>   5
Atom  43O    basis set group =>   4
Atom  44O    basis set group =>   4
Atom  45O    basis set group =>   4
Atom  46C    basis set group =>   1
Atom  47C    basis set group =>   1
Atom  48C    basis set group =>   1
Atom  49H    basis set group =>   2
Atom  50H    basis set group =>   2
Atom  51H    basis set group =>   2
Atom  52C    basis set group =>   1
Atom  53H    basis set group =>   2
Atom  54H    basis set group =>   2
Atom  55H    basis set group =>   2
Atom  56H    basis set group =>   2
Atom  57H    basis set group =>   2
Atom  58H    basis set group =>   2
Atom  59H    basis set group =>   2
------------------------------------------------------------------------------
                           ORCA GTO INTEGRAL CALCULATION
                           -- RI-GTO INTEGRALS CHOSEN --
------------------------------------------------------------------------------
------------------------------------------------------------------------------
                   ___                                                        
                  /   \      - P O W E R E D   B Y -                         
                 /     \                                                     
                 |  |  |   _    _      __       _____    __    __             
                 |  |  |  | |  | |    /  \     |  _  \  |  |  /  |          
                  \  \/   | |  | |   /    \    | | | |  |  | /  /          
                 / \  \   | |__| |  /  /\  \   | |_| |  |  |/  /          
                |  |  |   |  __  | /  /__\  \  |    /   |      \           
                |  |  |   | |  | | |   __   |  |    \   |  |\   \          
                \     /   | |  | | |  |  |  |  | |\  \  |  | \   \       
                 \___/    |_|  |_| |__|  |__|  |_| \__\ |__|  \__/        
                                                                              
                      - O R C A' S   B I G   F R I E N D -                    
                                      &                                       
                       - I N T E G R A L  F E E D E R -                       
                                                                              
 v1 FN, 2020, v2 2021                                                         
------------------------------------------------------------------------------


Reading SHARK input file NMU-DCP_ES.SHARKINP.tmp ... ok
----------------------
SHARK INTEGRAL PACKAGE
----------------------

Number of atoms                             ...     60
Number of basis functions                   ...    942
Number of shells                            ...    434
Maximum angular momentum                    ...      2
Integral batch strategy                     ... SHARK/LIBINT Hybrid
RI-J (if used) integral strategy            ... SPLIT-RIJ (Revised 2003 algorithm where possible)
Printlevel                                  ...      1
Contraction scheme used                     ... SEGMENTED contraction
Coulomb Range Separation                    ... NOT USED
Exchange Range Separation                   ... NOT USED
Finite Nucleus Model                        ... NOT USED
Auxiliary Coulomb fitting basis             ... AVAILABLE
   # of basis functions in Aux-J            ...   1878
   # of shells in Aux-J                     ...    622
   Maximum angular momentum in Aux-J        ...      4
Auxiliary J/K fitting basis                 ... NOT available
Auxiliary Correlation fitting basis         ... AVAILABLE
   # of basis functions in Aux-C            ...   2889
   # of shells in Aux-C                     ...    907
   Maximum angular momentum in Aux-C        ...      4
Auxiliary 'external' fitting basis          ... NOT available
Integral threshold                          ...     2.500000e-11
Primitive cut-off                           ...     2.500000e-12
Primitive pair pre-selection threshold      ...     2.500000e-12

Calculating pre-screening integrals         ... done (  0.3 sec) Dimension = 434
Organizing shell pair data                  ... done (  1.0 sec)
Shell pair information
Total number of shell pairs                 ...     94395
Shell pairs after pre-screening             ...     50833
Total number of primitive shell pairs       ...    307738
Primitive shell pairs kept                  ...    104940
          la=0 lb=0:  15241 shell pairs
          la=1 lb=0:  17158 shell pairs
          la=1 lb=1:   4861 shell pairs
          la=2 lb=0:   7961 shell pairs
          la=2 lb=1:   4536 shell pairs
          la=2 lb=2:   1076 shell pairs

Calculating one electron integrals          ... done (  0.4 sec)
Calculating RI/J V-Matrix + Cholesky decomp.... done (  0.6 sec)
Calculating RI/C V-Matrix + Cholesky decomp.... done (  1.4 sec)
Calculating Nuclear repulsion               ... done (  0.0 sec) ENN=   3395.562599719363 Eh

SHARK setup successfully completed in   5.0 seconds

Maximum memory used throughout the entire GTOINT-calculation: 348.3 MB
-------------------------------------------------------------------------------
                                 ORCA SCF
-------------------------------------------------------------------------------

------------
SCF SETTINGS
------------
Hamiltonian:
 Density Functional     Method          .... DFT(GTOs)
 Exchange Functional    Exchange        .... B88
   X-Alpha parameter    XAlpha          ....  0.666667
   Becke's b parameter  XBeta           ....  0.004200
 Correlation Functional Correlation     .... LYP
 LDA part of GGA corr.  LDAOpt          .... VWN-3
 Gradients option       PostSCFGGA      .... off
 Hybrid DFT is turned on
   Fraction HF Exchange ScalHFX         ....  0.200000
   Scaling of DF-GGA-X  ScalDFX         ....  0.720000
   Scaling of DF-GGA-C  ScalDFC         ....  0.810000
   Scaling of DF-LDA-C  ScalLDAC        ....  1.000000
   Perturbative correction              ....  0.000000
   Density functional embedding theory  .... OFF
   NL short-range parameter             ....  4.800000
 RI-approximation to the Coulomb term is turned on
   Number of AuxJ basis functions       .... 1878
   RIJ-COSX (HFX calculated with COS-X)).... on


General Settings:
 Integral files         IntName         .... NMU-DCP_ES
 Hartree-Fock type      HFTyp           .... RHF
 Total Charge           Charge          ....    1
 Multiplicity           Mult            ....    1
 Number of Electrons    NEL             ....  240
 Basis Dimension        Dim             ....  942
 Nuclear Repulsion      ENuc            ....   3395.5625997194 Eh

Convergence Acceleration:
 DIIS                   CNVDIIS         .... on
   Start iteration      DIISMaxIt       ....    12
   Startup error        DIISStart       ....  0.200000
   # of expansion vecs  DIISMaxEq       ....     5
   Bias factor          DIISBfac        ....   1.050
   Max. coefficient     DIISMaxC        ....  10.000
 Trust-Rad. Augm. Hess. CNVTRAH         .... auto
   Auto Start mean grad. ratio tolernc. ....  1.125000
   Auto Start start iteration           ....    20
   Auto Start num. interpolation iter.  ....    10
   Max. Number of Micro iterations      ....    16
   Max. Number of Macro iterations      .... Maxiter - #DIIS iter
   Number of Davidson start vectors     ....     2
   Converg. threshold I  (grad. norm)   ....   1.000e-05
   Converg. threshold II (energy diff.) ....   1.000e-08
   Grad. Scal. Fac. for Micro threshold ....   0.100
   Minimum threshold for Micro iter.    ....   0.010
   NR start threshold (gradient norm)   ....   0.001
   Initial trust radius                 ....   0.400
   Minimum AH scaling param. (alpha)    ....   1.000
   Maximum AH scaling param. (alpha)    .... 1000.000
   Orbital update algorithm             .... Taylor
   White noise on init. David. guess    .... on
   Maximum white noise                  ....   0.010
   Quad. conv. algorithm                .... NR
 SOSCF                  CNVSOSCF        .... on
   Start iteration      SOSCFMaxIt      ....   150
   Startup grad/error   SOSCFStart      ....  0.003300
 Level Shifting         CNVShift        .... on
   Level shift para.    LevelShift      ....    0.2500
   Turn off err/grad.   ShiftErr        ....    0.0010
 Zerner damping         CNVZerner       .... off
 Static damping         CNVDamp         .... on
   Fraction old density DampFac         ....    0.7000
   Max. Damping (<1)    DampMax         ....    0.9800
   Min. Damping (>=0)   DampMin         ....    0.0000
   Turn off err/grad.   DampErr         ....    0.1000
 Fernandez-Rico         CNVRico         .... off

SCF Procedure:
 Maximum # iterations   MaxIter         ....   125
 SCF integral mode      SCFMode         .... Direct
   Integral package                     .... SHARK and LIBINT hybrid scheme
 Reset frequency        DirectResetFreq ....    20
 Integral Threshold     Thresh          ....  2.500e-11 Eh
 Primitive CutOff       TCut            ....  2.500e-12 Eh

Convergence Tolerance:
 Convergence Check Mode ConvCheckMode   .... Total+1el-Energy
 Convergence forced     ConvForced      .... 1
 Energy Change          TolE            ....  1.000e-08 Eh
 1-El. energy change                    ....  1.000e-05 Eh
 Orbital Gradient       TolG            ....  1.000e-05
 Orbital Rotation angle TolX            ....  1.000e-05
 DIIS Error             TolErr          ....  5.000e-07


Diagonalization of the overlap matrix:
Smallest eigenvalue                        ... 3.589e-06
Time for diagonalization                   ...    0.166 sec
Threshold for overlap eigenvalues          ... 1.000e-08
Number of eigenvalues below threshold      ... 0
Time for construction of square roots      ...    0.172 sec
Total time needed                          ...    0.339 sec

Time for model grid setup =    3.027 sec

------------------------------
INITIAL GUESS: MODEL POTENTIAL
------------------------------
Loading Hartree-Fock densities                     ... done
Calculating cut-offs                               ... done
Initializing the effective Hamiltonian             ... done
Setting up the integral package (SHARK)            ... done
Starting the Coulomb interaction                   ... done (   6.5 sec)
Reading the grid                                   ... done
Mapping shells                                     ... done
Starting the XC term evaluation                    ... done (   2.6 sec)
  promolecular density results
     # of electrons  =    241.002263067
     EX              =   -208.802045075
     EC              =     -8.350147038
     EX+EC           =   -217.152192113
Transforming the Hamiltonian                       ... done (   0.2 sec)
Diagonalizing the Hamiltonian                      ... done (   0.2 sec)
Back transforming the eigenvectors                 ... done (   0.0 sec)
Now organizing SCF variables                       ... done
                      ------------------
                      INITIAL GUESS DONE (  12.8 sec)
                      ------------------
-------------------
DFT GRID GENERATION
-------------------

General Integration Accuracy     IntAcc      ... 4.388
Radial Grid Type                 RadialGrid  ... OptM3 with GC (2021)
Angular Grid (max. ang.)         AngularGrid ... 4 (Lebedev-302)
Angular grid pruning method      GridPruning ... 4 (adaptive)
Weight generation scheme         WeightScheme... Becke
Basis function cutoff            BFCut       ... 1.0000e-11
Integration weight cutoff        WCut        ... 1.0000e-14
Angular grids for H and He will be reduced by one unit
Partially contracted basis set               ... off
Rotationally invariant grid construction     ... off

Total number of grid points                  ...   281132
Total number of batches                      ...     4420
Average number of points per batch           ...       63
Average number of grid points per atom       ...     4686
Time for grid setup =    9.789 sec

--------------------
COSX GRID GENERATION
--------------------

GRIDX 1
-------
General Integration Accuracy     IntAcc      ... 3.816
Radial Grid Type                 RadialGrid  ... OptM3 with GC (2021)
Angular Grid (max. ang.)         AngularGrid ... 1 (Lebedev-50)
Angular grid pruning method      GridPruning ... 4 (adaptive)
Weight generation scheme         WeightScheme... Becke
Basis function cutoff            BFCut       ... 1.0000e-11
Integration weight cutoff        WCut        ... 1.0000e-14
Angular grids for H and He will be reduced by one unit
Partially contracted basis set               ... on
Rotationally invariant grid construction     ... off

Total number of grid points                  ...    35696
Total number of batches                      ...      592
Average number of points per batch           ...       60
Average number of grid points per atom       ...      595
UseSFitting                                  ... on

GRIDX 2
-------
General Integration Accuracy     IntAcc      ... 4.020
Radial Grid Type                 RadialGrid  ... OptM3 with GC (2021)
Angular Grid (max. ang.)         AngularGrid ... 2 (Lebedev-110)
Angular grid pruning method      GridPruning ... 4 (adaptive)
Weight generation scheme         WeightScheme... Becke
Basis function cutoff            BFCut       ... 1.0000e-11
Integration weight cutoff        WCut        ... 1.0000e-14
Angular grids for H and He will be reduced by one unit
Partially contracted basis set               ... on
Rotationally invariant grid construction     ... off

Total number of grid points                  ...    76562
Total number of batches                      ...     1229
Average number of points per batch           ...       62
Average number of grid points per atom       ...     1276
UseSFitting                                  ... on

GRIDX 3
-------
General Integration Accuracy     IntAcc      ... 4.338
Radial Grid Type                 RadialGrid  ... OptM3 with GC (2021)
Angular Grid (max. ang.)         AngularGrid ... 3 (Lebedev-194)
Angular grid pruning method      GridPruning ... 4 (adaptive)
Weight generation scheme         WeightScheme... Becke
Basis function cutoff            BFCut       ... 1.0000e-11
Integration weight cutoff        WCut        ... 1.0000e-14
Angular grids for H and He will be reduced by one unit
Partially contracted basis set               ... on
Rotationally invariant grid construction     ... off

Total number of grid points                  ...   167468
Total number of batches                      ...     2651
Average number of points per batch           ...       63
Average number of grid points per atom       ...     2791
UseSFitting                                  ... on

Time for X-Grid setup             =   14.928 sec


--------------------
CPCM SOLVATION MODEL
--------------------
CPCM parameters:
  Epsilon                                         ...      80.4000
  Refrac                                          ...       1.3300
  Rsolv                                           ...       1.3000
  Surface type                                    ... GAUSSIAN VDW
  Epsilon function type                           ...         CPCM
Radii:
 Radius for C  used is    3.8550 Bohr (=   2.0400 Ang.)
 Radius for H  used is    2.4944 Bohr (=   1.3200 Ang.)
 Radius for N  used is    3.5149 Bohr (=   1.8600 Ang.)
 Radius for O  used is    3.4469 Bohr (=   1.8240 Ang.)
 Radius for P  used is    4.0818 Bohr (=   2.1600 Ang.)
Calculating surface                               ...        done! (  0.0s)
GEPOL surface points                              ...         3160
GEPOL Volume                                      ...    3460.9989
GEPOL Surface-area                                ...    1749.7977
Calculating surface distance matrix               ...        done! (  0.1s)
Performing Cholesky decomposition & store         ...        done! (  0.9s)
Overall time for CPCM initialization              ...                 1.0s
--------------
SCF ITERATIONS
--------------
ITER       Energy         Delta-E        Max-DP      RMS-DP      [F,P]     Damp
               ***  Starting incremental Fock matrix formation  ***
  0  -1758.0248926442   0.000000000000 0.13423642  0.00092256  0.3758025 0.7000
  1  -1758.4390597901  -0.414167145918 0.11702474  0.00068948  0.1290623 0.7000
                               ***Turning on DIIS***
[...]
 31 C      6.1576     6.0000    -0.1576     4.0072     4.0072    -0.0000
 32 C      6.1170     6.0000    -0.1170     4.0688     4.0688    -0.0000
 33 N      7.2027     7.0000    -0.2027     3.3250     3.3250     0.0000
 34 C      5.9791     6.0000     0.0209     4.0183     4.0183     0.0000
 35 C      5.9836     6.0000     0.0164     3.8104     3.8104    -0.0000
 36 H      0.8141     1.0000     0.1859     0.9877     0.9877     0.0000
 37 H      0.8415     1.0000     0.1585     0.9603     0.9603     0.0000
 38 H      0.8129     1.0000     0.1871     0.9808     0.9808    -0.0000
 39 H      0.8275     1.0000     0.1725     0.9582     0.9582    -0.0000
 40 H      0.9098     1.0000     0.0902     0.9897     0.9897    -0.0000
 41 H      0.8609     1.0000     0.1391     0.9731     0.9731     0.0000
 42 P     13.4435    15.0000     1.5565     4.9467     4.9467    -0.0000
 43 O      8.7773     8.0000    -0.7773     1.8979     1.8979    -0.0000
 44 O      8.5198     8.0000    -0.5198     1.9488     1.9488     0.0000
 45 O      8.5193     8.0000    -0.5193     1.9494     1.9494     0.0000
 46 C      6.0202     6.0000    -0.0202     3.8243     3.8243    -0.0000
 47 C      6.0200     6.0000    -0.0200     3.8242     3.8242     0.0000
 48 C      6.3525     6.0000    -0.3525     3.9135     3.9135     0.0000
 49 H      0.8574     1.0000     0.1426     0.9414     0.9414     0.0000
 50 H      0.8630     1.0000     0.1370     0.9539     0.9539    -0.0000
 51 H      0.8575     1.0000     0.1425     0.9424     0.9424    -0.0000
 52 C      6.3532     6.0000    -0.3532     3.9142     3.9142    -0.0000
 53 H      0.8627     1.0000     0.1373     0.9535     0.9535     0.0000
 54 H      0.8699     1.0000     0.1301     0.9599     0.9599     0.0000
 55 H      0.8644     1.0000     0.1356     0.9602     0.9602     0.0000
 56 H      0.8711     1.0000     0.1289     0.9611     0.9611    -0.0000
 57 H      0.8700     1.0000     0.1300     0.9598     0.9598     0.0000
 58 H      0.8710     1.0000     0.1290     0.9611     0.9611    -0.0000
 59 H      0.8641     1.0000     0.1359     0.9601     0.9601     0.0000

  Mayer bond orders larger than 0.100000
B(  0-C ,  1-C ) :   1.0090 B(  0-C ,  9-N ) :   0.9321 B(  0-C , 10-H ) :   0.9512 
B(  0-C , 11-H ) :   0.9505 B(  1-C ,  2-C ) :   1.0165 B(  1-C ,  3-H ) :   0.9685 
B(  1-C ,  4-H ) :   0.9592 B(  2-C ,  5-C ) :   0.9947 B(  2-C ,  6-H ) :   0.9559 
B(  2-C ,  7-H ) :   0.9466 B(  5-C ,  8-C ) :   1.2249 B(  5-C , 22-C ) :   1.4010 
B(  8-C ,  9-N ) :   1.4014 B(  8-C , 19-C ) :   1.2271 B(  9-N , 12-C ) :   0.9340 
B( 12-C , 13-C ) :   0.9994 B( 12-C , 14-H ) :   0.9518 B( 12-C , 15-H ) :   0.9530 
B( 13-C , 16-C ) :   1.0333 B( 13-C , 17-H ) :   0.9619 B( 13-C , 18-H ) :   0.9669 
B( 16-C , 19-C ) :   1.0358 B( 16-C , 20-H ) :   0.9556 B( 16-C , 21-H ) :   0.9469 
B( 19-C , 23-C ) :   1.3583 B( 22-C , 24-C ) :   1.0967 B( 22-C , 40-H ) :   1.0536 
B( 23-C , 24-C ) :   1.3384 B( 23-C , 25-O ) :   1.0174 B( 24-C , 27-C ) :   1.1158 
B( 25-O , 26-C ) :   1.0936 B( 26-C , 28-C ) :   1.1093 B( 26-C , 29-O ) :   1.9567 
B( 27-C , 28-C ) :   1.4811 B( 27-C , 41-H ) :   0.9850 B( 28-C , 30-C ) :   0.9090 
B( 30-C , 31-C ) :   1.3514 B( 30-C , 32-C ) :   1.4635 B( 31-C , 33-N ) :   0.1015 
B( 31-C , 34-C ) :   0.1033 B( 31-C , 35-C ) :   1.3510 B( 31-C , 39-H ) :   0.9577 
B( 32-C , 33-N ) :   1.2662 B( 32-C , 36-H ) :   0.9401 B( 33-N , 34-C ) :   1.2708 
B( 33-N , 42-P ) :   0.7703 B( 34-C , 35-C ) :   1.4680 B( 34-C , 38-H ) :   0.9390 
B( 35-C , 37-H ) :   0.9544 B( 42-P , 43-O ) :   1.7740 B( 42-P , 44-O ) :   1.0852 
B( 42-P , 45-O ) :   1.0845 B( 44-O , 47-C ) :   0.8463 B( 45-O , 46-C ) :   0.8474 
B( 46-C , 48-C ) :   1.0183 B( 46-C , 49-H ) :   0.9570 B( 46-C , 50-H ) :   0.9586 
B( 47-C , 51-H ) :   0.9570 B( 47-C , 52-C ) :   1.0185 B( 47-C , 53-H ) :   0.9585 
B( 48-C , 54-H ) :   0.9728 B( 48-C , 55-H ) :   0.9618 B( 48-C , 56-H ) :   0.9712 
B( 52-C , 57-H ) :   0.9728 B( 52-C , 58-H ) :   0.9711 B( 52-C , 59-H ) :   0.9619 


Environment variable NBOEXE for nbo6.exe or nbo5.exe not set! Skipping NBO-Analysis

-------
TIMINGS
-------

Total SCF time: 0 days 0 hours 24 min 30 sec 

Total time                  ....    1470.758 sec
Sum of individual times     ....    1465.090 sec  ( 99.6%)

Fock matrix formation       ....    1437.958 sec  ( 97.8%)
  Split-RI-J                ....      91.013 sec  (  6.3% of F)
  Chain of spheres X        ....    1178.773 sec  ( 82.0% of F)
  XC integration            ....      49.107 sec  (  3.4% of F)
    Basis function eval.    ....      15.498 sec  ( 31.6% of XC)
    Density eval.           ....      18.330 sec  ( 37.3% of XC)
    XC-Functional eval.     ....       1.415 sec  (  2.9% of XC)
    XC-Potential eval.      ....      11.801 sec  ( 24.0% of XC)
Diagonalization             ....       0.298 sec  (  0.0%)
Density matrix formation    ....       0.198 sec  (  0.0%)
Population analysis         ....       0.485 sec  (  0.0%)
Initial guess               ....       0.368 sec  (  0.0%)
Orbital Transformation      ....       0.000 sec  (  0.0%)
Orbital Orthonormalization  ....       0.326 sec  (  0.0%)
DIIS solution               ....       0.092 sec  (  0.0%)
SOSCF solution              ....       1.328 sec  (  0.1%)
Grid generation             ....      24.363 sec  (  1.7%)

Maximum memory used throughout the entire SCF-calculation: 562.1 MB
------------------------------------------------------------------------------
                        ORCA TD-DFT/TDA CALCULATION
------------------------------------------------------------------------------

Input orbitals are from        ... NMU-DCP_ES.gbw
CI-vector output               ... NMU-DCP_ES.cis
Tamm-Dancoff approximation     ... operative
CIS-Integral strategy          ... AO-integrals
Integral handling              ... AO integral Direct
Max. core memory used          ... 3000 MB
Reference state                ... RHF
Generation of triplets         ... off
Follow IRoot                   ... off
Number of operators            ... 1
Orbital ranges used for CIS calculation:
 Operator 0:  Orbitals  36...119  to 120...941
XAS localization array:
 Operator 0:  Orbitals  -1... -1

-------------------
XC-INTEGRATION GRID
-------------------

General Integration Accuracy     IntAcc      ... 3.467
Radial Grid Type                 RadialGrid  ... OptM3 with GC (2021)
Angular Grid (max. ang.)         AngularGrid ... 1 (Lebedev-50)
Angular grid pruning method      GridPruning ... 4 (adaptive)
Weight generation scheme         WeightScheme... Becke
Basis function cutoff            BFCut       ... 1.0000e-11
Integration weight cutoff        WCut        ... 1.0000e-14
Angular grids for H and He will be reduced by one unit
Partially contracted basis set               ... off
Rotationally invariant grid construction     ... off

Total number of grid points                  ...    40369
Total number of batches                      ...      656
Average number of points per batch           ...       61
Average number of grid points per atom       ...      673

---------------------
COSX-INTEGRATION GRID
---------------------

General Integration Accuracy     IntAcc      ... 3.067
Radial Grid Type                 RadialGrid  ... OptM3 with GC (2021)
Angular Grid (max. ang.)         AngularGrid ... 1 (Lebedev-50)
Angular grid pruning method      GridPruning ... 4 (adaptive)
Weight generation scheme         WeightScheme... Becke
Basis function cutoff            BFCut       ... 1.0000e-11
Integration weight cutoff        WCut        ... 1.0000e-14
Angular grids for H and He will be reduced by one unit
Partially contracted basis set               ... on
Rotationally invariant grid construction     ... off

Total number of grid points                  ...    18941
Total number of batches                      ...      330
Average number of points per batch           ...       57
Average number of grid points per atom       ...      316

---------------
TD-DFT XC SETUP
---------------

DFT calculation                         ... on
Name of the grid file                   ... NMU-DCP_ES.grid_cis.tmp
Exchange functional (TD-DFT)            ... B88
   X-Alpha parameter    XAlpha (TD-DFT) ...  0.666667
   Becke's b parameter  XBeta (TD-DFT)  ...  0.004200
Correlation functional (TD-DFT)         ... LYP
 LDA part of GGA corr.  LDAOpt (TD-DFT) ... VWN-3
Hybrid DFT                              ... on
   Exchange mixing (TD-DFT)             ...  0.200
   GGA exch. scaling (TD-DFT)           ...  0.720
   GGA corr. scaling (TD-DFT)           ...  0.810

Building densities             ... done
Calculating rho(r) on the grid ... done
Building xc-kernel on the grid ... done
                    *** TD-DFT CALCULATION INITIALIZED ***

-----------------------------
    LR-CPCM (equilibrium)
-----------------------------

Setting up LR-CPCM             ... done

------------------------
DAVIDSON-DIAGONALIZATION
------------------------

Dimension of the eigenvalue problem            ...  69048
Number of roots to be determined               ...      1
Maximum size of the expansion space            ...     10
Maximum number of iterations                   ...    100
Convergence tolerance for the residual         ...    2.500e-07
Convergence tolerance for the energies         ...    2.500e-07
Orthogonality tolerance                        ...    1.000e-14
Level Shift                                    ...    0.000e+00
Constructing the preconditioner                ... o.k.
Building the initial guess                     ... o.k.
Number of trial vectors determined             ...     10


                       ****Iteration    0****

   Memory handling for direct AO based CIS:
   Memory per vector needed      ...    40 MB
   Memory needed                 ...   121 MB
   Memory available              ...  3000 MB
   Number of vectors per batch   ...    73
   Number of batches             ...     1
   Time for densities:            0.039
   Time for RI-J (Direct):       16.500
   Time for K (COSX):            50.149
   Time for XC-Integration:       5.573
   Time for LR-CPCM terms:       24.152
   Time for Sigma-Completion:     0.064
   Size of expansion space: 3
   Lowest Energy          :     0.049338994839
   Maximum Energy change  :     0.049338994839 (vector 0)
   Maximum residual norm  :     0.000586964333

                       ****Iteration    1****
   Time for densities:            0.013
   Time for RI-J (Direct):       12.214
   Time for K (COSX):            39.922
   Time for XC-Integration:       1.802
   Time for LR-CPCM terms:       17.343
   Time for Sigma-Completion:     0.023
   Size of expansion space: 4
   Lowest Energy          :     0.048562965253
   Maximum Energy change  :     0.000776029586 (vector 0)
   Maximum residual norm  :     0.000052593359

                       ****Iteration    2****
   Time for densities:            0.013
   Time for RI-J (Direct):       12.363
   Time for K (COSX):            39.525
   Time for XC-Integration:       1.863
   Time for LR-CPCM terms:       17.891
   Time for Sigma-Completion:     0.023
   Size of expansion space: 5
   Lowest Energy          :     0.048422548961
   Maximum Energy change  :     0.000140416292 (vector 0)
   Maximum residual norm  :     0.000007715595

                       ****Iteration    3****
   Time for densities:            0.014
   Time for RI-J (Direct):       13.856
   Time for K (COSX):            39.871
   Time for XC-Integration:       2.193
   Time for LR-CPCM terms:       18.196
   Time for Sigma-Completion:     0.239
   Size of expansion space: 6
   Lowest Energy          :     0.048414718852
   Maximum Energy change  :     0.000007830109 (vector 0)
   Maximum residual norm  :     0.000000406794

                       ****Iteration    4****
   Time for densities:            0.013
   Time for RI-J (Direct):       12.623
   Time for K (COSX):            40.338
   Time for XC-Integration:       1.947
   Time for LR-CPCM terms:       18.790
   Time for Sigma-Completion:     0.023
   Size of expansion space: 7
   Lowest Energy          :     0.048414344152
   Maximum Energy change  :     0.000000374700 (vector 0)
   Maximum residual norm  :     0.000000024925

      *** CONVERGENCE OF RESIDUAL NORM REACHED ***

Storing the converged CI vectors               ... NMU-DCP_ES.cis1

                 *** DAVIDSON DONE ***

Total time for solving the CIS problem:   388.437sec

------------------------------------
TD-DFT/TDA EXCITED STATES (SINGLETS)
------------------------------------

the weight of the individual excitations are printed if larger than 1.0e-02

STATE  1:  E=   0.048414 au      1.317 eV    10625.7 cm**-1 <S**2> =   0.000000
   119a -> 120a  :     0.993143 (c=  0.99656572)


-----------------------------
TD-DFT/TDA-EXCITATION SPECTRA
-----------------------------

Center of mass = (  0.2139, -7.7869, -0.8908)
Calculating the Dipole integrals                  ... done
Transforming integrals                            ... done
Calculating the Linear Momentum integrals         ... done
Transforming integrals                            ... done
Calculating angular momentum integrals            ... done
Transforming integrals                            ... done

-----------------------------------------------------------------------------
         ABSORPTION SPECTRUM VIA TRANSITION ELECTRIC DIPOLE MOMENTS
-----------------------------------------------------------------------------
State   Energy    Wavelength  fosc         T2        TX        TY        TZ  
        (cm-1)      (nm)                 (au**2)    (au)      (au)      (au) 
-----------------------------------------------------------------------------
   1   10625.7    941.1   0.010194000   0.31584   0.53212  -0.15120   0.09911

-----------------------------------------------------------------------------
         ABSORPTION SPECTRUM VIA TRANSITION VELOCITY DIPOLE MOMENTS
-----------------------------------------------------------------------------
State   Energy    Wavelength   fosc        P2         PX        PY        PZ  
        (cm-1)      (nm)                 (au**2)     (au)      (au)      (au) 
-----------------------------------------------------------------------------
   1   10625.7    941.1   0.004210766   0.00031  -0.01083   0.00496   0.01280

-------------------------------------------------------------------
                             CD SPECTRUM
-------------------------------------------------------------------
State  Energy     Wavelength     R         MX        MY        MZ   
       (cm-1)       (nm)     (1e40*cgs)   (au)      (au)      (au)  
-------------------------------------------------------------------
   1   10625.7    941.1     -5.55099  -0.02571   0.02895   0.06341

-------------------------------------------------------------------
         CD SPECTRUM VIA TRANSITION VELOCITY DIPOLE MOMENTS        
-------------------------------------------------------------------
State  Energy     Wavelength     R         MX        MY        MZ   
       (cm-1)       (nm)     (1e40*cgs)   (au)      (au)      (au)  
-------------------------------------------------------------------
   1   10625.7    941.1    -12.01403  -0.02571   0.02895   0.06341

Total run time:      396.115 sec

           *** ORCA-CIS/TD-DFT FINISHED WITHOUT ERROR ***

Maximum memory used throughout the entire CIS-calculation: 504.0 MB

-----------------------
CIS/TD-DFT TOTAL ENERGY
-----------------------

    E(SCF)  =  -1758.907471581 Eh
    DE(CIS) =      0.048414344 Eh (Root  1)
    ----------------------------- ---------
    E(tot)  =  -1758.859057237 Eh


-------------------------   --------------------
FINAL SINGLE POINT ENERGY     -1758.859057236544
-------------------------   --------------------

                                *** OPTIMIZATION RUN DONE ***

                            ***************************************
                            *     ORCA property calculations      *
                            ***************************************

                                    ---------------------
                                    Active property flags
                                    ---------------------
   (+) Dipole Moment


------------------------------------------------------------------------------
                       ORCA ELECTRIC PROPERTIES CALCULATION
------------------------------------------------------------------------------

Dipole Moment Calculation                       ... on
Quadrupole Moment Calculation                   ... off
Polarizability Calculation                      ... off
GBWName                                         ... NMU-DCP_ES.gbw
Electron density                                ... NMU-DCP_ES.scfp
The origin for moment calculation is the CENTER OF MASS  = ( 0.213912, -7.786860 -0.890844)

-------------
DIPOLE MOMENT
-------------
                                X             Y             Z
Electronic contribution:     25.99119      -3.93863       7.38026
Nuclear contribution   :    -26.38399       2.40883      -5.32551
                        -----------------------------------------
Total Dipole Moment    :     -0.39280      -1.52980       2.05475
                        -----------------------------------------
Magnitude (a.u.)       :      2.59163
Magnitude (Debye)      :      6.58741



--------------------
Rotational spectrum 
--------------------
 
Rotational constants in cm-1:     0.008008     0.001877     0.001739 
Rotational constants in MHz :   240.065783    56.273558    52.121615 

 Dipole components along the rotational axes: 
x,y,z [a.u.] :    -0.296156    -1.718831     1.916894 
x,y,z [Debye]:    -0.752769    -4.368921     4.872358 

 

                        *** CIS RELAXED DENSITY ***

------------------------------------------------------------------------------
                       ORCA ELECTRIC PROPERTIES CALCULATION
------------------------------------------------------------------------------

Dipole Moment Calculation                       ... on
Quadrupole Moment Calculation                   ... off
Polarizability Calculation                      ... off
GBWName                                         ... NMU-DCP_ES.gbw
Electron density                                ... NMU-DCP_ES.cisp
The origin for moment calculation is the CENTER OF MASS  = ( 0.213912, -7.786860 -0.890844)

-------------
DIPOLE MOMENT
-------------
                                X             Y             Z
Electronic contribution:     16.06749       1.47845       6.86722
Nuclear contribution   :    -26.38399       2.40883      -5.32551
                        -----------------------------------------
Total Dipole Moment    :    -10.31651       3.88728       1.54171
                        -----------------------------------------
Magnitude (a.u.)       :     11.13185
Magnitude (Debye)      :     28.29492



--------------------
Rotational spectrum 
--------------------
 
Rotational constants in cm-1:     0.008008     0.001877     0.001739 
Rotational constants in MHz :   240.065783    56.273558    52.121615 

 Dipole components along the rotational axes: 
x,y,z [a.u.] :    10.767286    -2.818494    -0.199433 
x,y,z [Debye]:    27.368265    -7.164042    -0.506917 

 

Timings for individual modules:

Sum of individual times         ...    52305.822 sec (= 871.764 min)
GTO integral calculation        ...       58.711 sec (=   0.979 min)   0.1 %
SCF iterations                  ...    19273.413 sec (= 321.224 min)  36.8 %
CIS module                      ...     4251.570 sec (=  70.859 min)   8.1 %
SCF Gradient evaluation         ...    28718.706 sec (= 478.645 min)  54.9 %
Geometry relaxation             ...        3.422 sec (=   0.057 min)   0.0 %
                             ****ORCA TERMINATED NORMALLY****
TOTAL RUN TIME: 0 days 14 hours 31 minutes 57 seconds 615 msec
