
                                 *****************
                                 * O   R   C   A *
                                 *****************

                                            #,                                       
                                            ###                                      
                                            ####                                     
                                            #####                                    
                                            ######                                   
                                           ########,                                 
                                     ,,################,,,,,                         
                               ,,#################################,,                 
                          ,,##########################################,,             
                       ,#########################################, ''#####,          
                    ,#############################################,,   '####,        
                  ,##################################################,,,,####,       
                ,###########''''           ''''###############################       
              ,#####''   ,,,,##########,,,,          '''####'''          '####       
            ,##' ,,,,###########################,,,                        '##       
           ' ,,###''''                  '''############,,,                           
         ,,##''                                '''############,,,,        ,,,,,,###''
      ,#''                                            '''#######################'''  
     '                                                          ''''####''''         
             ,#######,   #######,   ,#######,      ##                                
            ,#'     '#,  ##    ##  ,#'     '#,    #''#        ######   ,####,        
            ##       ##  ##   ,#'  ##            #'  '#       #        #'  '#        
            ##       ##  #######   ##           ,######,      #####,   #    #        
            '#,     ,#'  ##    ##  '#,     ,#' ,#      #,         ##   #,  ,#        
             '#######'   ##     ##  '#######'  #'      '#     #####' # '####'        



                  #######################################################
                  #                        -***-                        #
                  #          Department of theory and spectroscopy      #
                  #    Directorship and core code : Frank Neese         #
                  #        Max Planck Institute fuer Kohlenforschung    #
                  #                Kaiser Wilhelm Platz 1               #
                  #                 D-45470 Muelheim/Ruhr               #
                  #                      Germany                        #
                  #                                                     #
                  #                  All rights reserved                #
                  #                        -***-                        #
                  #######################################################


                         Program Version 5.0.4 -  RELEASE  -


 With contributions from (in alphabetic order):
   Daniel Aravena         : Magnetic Suceptibility
   Michael Atanasov       : Ab Initio Ligand Field Theory (pilot matlab implementation)
   Alexander A. Auer      : GIAO ZORA, VPT2 properties, NMR spectrum
   Ute Becker             : Parallelization
   Giovanni Bistoni       : ED, misc. LED, open-shell LED, HFLD
   Martin Brehm           : Molecular dynamics
   Dmytro Bykov           : SCF Hessian
   Vijay G. Chilkuri      : MRCI spin determinant printing, contributions to CSF-ICE
   Dipayan Datta          : RHF DLPNO-CCSD density
   Achintya Kumar Dutta   : EOM-CC, STEOM-CC
   Dmitry Ganyushin       : Spin-Orbit,Spin-Spin,Magnetic field MRCI
   Miquel Garcia          : C-PCM and meta-GGA Hessian, CC/C-PCM, Gaussian charge scheme
   Yang Guo               : DLPNO-NEVPT2, F12-NEVPT2, CIM, IAO-localization
   Andreas Hansen         : Spin unrestricted coupled pair/coupled cluster methods
   Benjamin Helmich-Paris : MC-RPA, TRAH-SCF, COSX integrals
   Lee Huntington         : MR-EOM, pCC
   Robert Izsak           : Overlap fitted RIJCOSX, COSX-SCS-MP3, EOM
   Marcus Kettner         : VPT2
   Christian Kollmar      : KDIIS, OOCD, Brueckner-CCSD(T), CCSD density, CASPT2, CASPT2-K
   Simone Kossmann        : Meta GGA functionals, TD-DFT gradient, OOMP2, MP2 Hessian
   Martin Krupicka        : Initial AUTO-CI
   Lucas Lang             : DCDCAS
   Marvin Lechner         : AUTO-CI (C++ implementation), FIC-MRCC
   Dagmar Lenk            : GEPOL surface, SMD
   Dimitrios Liakos       : Extrapolation schemes; Compound Job, initial MDCI parallelization
   Dimitrios Manganas     : Further ROCIS development; embedding schemes
   Dimitrios Pantazis     : SARC Basis sets
   Anastasios Papadopoulos: AUTO-CI, single reference methods and gradients
   Taras Petrenko         : DFT Hessian,TD-DFT gradient, ASA, ECA, R-Raman, ABS, FL, XAS/XES, NRVS
   Peter Pinski           : DLPNO-MP2, DLPNO-MP2 Gradient
   Christoph Reimann      : Effective Core Potentials
   Marius Retegan         : Local ZFS, SOC
   Christoph Riplinger    : Optimizer, TS searches, QM/MM, DLPNO-CCSD(T), (RO)-DLPNO pert. Triples
   Tobias Risthaus        : Range-separated hybrids, TD-DFT gradient, RPA, STAB
   Michael Roemelt        : Original ROCIS implementation
   Masaaki Saitow         : Open-shell DLPNO-CCSD energy and density
   Barbara Sandhoefer     : DKH picture change effects
   Avijit Sen             : IP-ROCIS
   Kantharuban Sivalingam : CASSCF convergence, NEVPT2, FIC-MRCI
   Bernardo de Souza      : ESD, SOC TD-DFT
   Georgi Stoychev        : AutoAux, RI-MP2 NMR, DLPNO-MP2 response
   Willem Van den Heuvel  : Paramagnetic NMR
   Boris Wezisla          : Elementary symmetry handling
   Frank Wennmohs         : Technical directorship


 We gratefully acknowledge several colleagues who have allowed us to
 interface, adapt or use parts of their codes:
   Stefan Grimme, W. Hujo, H. Kruse, P. Pracht,  : VdW corrections, initial TS optimization,
                  C. Bannwarth, S. Ehlert          DFT functionals, gCP, sTDA/sTD-DF
   Ed Valeev, F. Pavosevic, A. Kumar             : LibInt (2-el integral package), F12 methods
   Garnet Chan, S. Sharma, J. Yang, R. Olivares  : DMRG
   Ulf Ekstrom                                   : XCFun DFT Library
   Mihaly Kallay                                 : mrcc  (arbitrary order and MRCC methods)
   Jiri Pittner, Ondrej Demel                    : Mk-CCSD
   Frank Weinhold                                : gennbo (NPA and NBO analysis)
   Christopher J. Cramer and Donald G. Truhlar   : smd solvation model
   Lars Goerigk                                  : TD-DFT with DH, B97 family of functionals
   V. Asgeirsson, H. Jonsson                     : NEB implementation
   FAccTs GmbH                                   : IRC, NEB, NEB-TS, DLPNO-Multilevel, CI-OPT
                                                   MM, QMMM, 2- and 3-layer-ONIOM, Crystal-QMMM,
                                                   LR-CPCM, SF, NACMEs, symmetry and pop. for TD-DFT,
                                                   nearIR, NL-DFT gradient (VV10), updates on ESD,
                                                   ML-optimized integration grids
   S Lehtola, MJT Oliveira, MAL Marques          : LibXC Library
   Liviu Ungur et al                             : ANISO software


 Your calculation uses the libint2 library for the computation of 2-el integrals
 For citations please refer to: http://libint.valeyev.net

 Your ORCA version has been built with support for libXC version: 5.1.0
 For citations please refer to: https://tddft.org/programs/libxc/

 This ORCA versions uses:
   CBLAS   interface :  Fast vector & matrix operations
   LAPACKE interface :  Fast linear algebra routines
   SCALAPACK package :  Parallel linear algebra routines
   Shared memory     :  Shared parallel matrices
   BLAS/LAPACK       :  OpenBLAS 0.3.15  USE64BITINT DYNAMIC_ARCH NO_AFFINITY Zen SINGLE_THREADED
        Core in use  :  Zen
   Copyright (c) 2011-2014, The OpenBLAS Project


================================================================================

----- Orbital basis set information -----
Your calculation utilizes the basis: def2-TZVP(-f)
   F. Weigend and R. Ahlrichs, Phys. Chem. Chem. Phys. 7, 3297 (2005).

----- AuxJ basis set information -----
Your calculation utilizes the auxiliary basis: def2/J
   F. Weigend, Phys. Chem. Chem. Phys. 8, 1057 (2006).

----- AuxC basis set information -----
Your calculation utilizes the auxiliary basis: def2-TZVP/C
  H-La, Hf-Rn : A. Hellweg, C. Hattig, S. Hofener and W. Klopper, Theor. Chem. Acc. 117, 587 (2007).
        Ce-Lu : J. Chmela and M. E. Harding, Mol. Phys. (2018).

================================================================================
                                        WARNINGS
                       Please study these warnings very carefully!
================================================================================


INFO   : the flag for use of the SHARK integral package has been found!

================================================================================
                                       INPUT FILE
================================================================================
NAME = HBQ_GS.inp
|  1> ! B3LYP/G FREQ Def2-TZVP(-f) Def2-TZVP/C Def2/J RIJCOSX TightSCF CPCM(Water) AllPop SOSCF
|  2> 
|  3> * xyz 0 1
|  4>   C   -3.29427742206977     -0.64644673085454     -0.61830236256619
|  5>   C   -2.79193783387700     -1.50249156800673     -1.60322792775029
|  6>   C   -1.43844741589871     -1.54295748570471     -1.83596893493297
|  7>   C   -2.44969206905909      0.15850848959996      0.11391956764737
|  8>   C   -1.04607727993728      0.15369735491148     -0.08995443163697
|  9>   O   -3.05525269796050      0.89173977299862      1.12959822010116
| 10>   C   -0.55477066364860     -0.73383628884240     -1.09494226085955
| 11>   C   0.85066792963646     -0.81848025448833     -1.35762898897175
| 12>   C   1.74401779923739     -0.07425581331070     -0.66737944471889
| 13>   C   -0.08241957285496      0.96443894314803      0.64180782419541
| 14>   C   1.30221875961813      0.83188058829893      0.34390661999475
| 15>   N   -0.50882215483953      1.83341350947850      1.58611497959203
| 16>   C   0.37819738949340      2.55939671190755      2.24324732821966
| 17>   C   1.76019638572666      2.49029902726503      2.02389061707692
| 18>   C   2.21723932916533      1.61947413145264      1.06525520416058
| 19>   C   -3.31427517051416      2.21787061229053      0.89751096115064
| 20>   O   -3.11988103641509      2.74303800996144     -0.18822723553327
| 21>   N   -3.81843227930513      2.82579231825617      1.98870596281696
| 22>   C   -4.10556772801243      2.13772237657102      3.24266622696836
| 23>   C   -4.30227119923351      4.19610361307538      1.88500291297919
| 24>   H   -3.98874170086744      4.62290173107799      0.93846166745227
| 25>   H   -3.89263782966633      4.78961938799755      2.70400595438292
| 26>   H   -5.39382275814618      4.22350650742727      1.94830989785070
| 27>   H   -3.48220878815922      1.25726619784040      3.34737346058787
| 28>   H   -5.15750648016043      1.84205279906163      3.29595013045477
| 29>   H   -3.89638476178200      2.81849315185918      4.06829296562207
| 30>   H   -1.02766113168993     -2.20187664831027     -2.59059448930793
| 31>   H   -4.35518479399456     -0.60407587746015     -0.40998670468854
| 32>   H   -3.46975409960987     -2.12665192730886     -2.17083923618162
| 33>   H   1.18140391106415     -1.50342445895894     -2.12860190829612
| 34>   H   2.80578802419604     -0.14726035945888     -0.86955320666875
| 35>   H   -0.01665804974943      3.24215862326288      2.98920828240005
| 36>   H   2.43579950381512      3.11184457478342      2.59606312027014
| 37>   H   3.27530588549879      1.52837898017867      0.85029522818887
| 38> *
| 39> 
| 40> 
| 41>                          ****END OF INPUT****
================================================================================

                       ****************************
                       * Single Point Calculation *
                       ****************************

---------------------------------
CARTESIAN COORDINATES (ANGSTROEM)
---------------------------------
  C     -3.294277   -0.646447   -0.618302
  C     -2.791938   -1.502492   -1.603228
  C     -1.438447   -1.542957   -1.835969
  C     -2.449692    0.158508    0.113920
  C     -1.046077    0.153697   -0.089954
  O     -3.055253    0.891740    1.129598
  C     -0.554771   -0.733836   -1.094942
  C      0.850668   -0.818480   -1.357629
  C      1.744018   -0.074256   -0.667379
  C     -0.082420    0.964439    0.641808
  C      1.302219    0.831881    0.343907
  N     -0.508822    1.833414    1.586115
  C      0.378197    2.559397    2.243247
  C      1.760196    2.490299    2.023891
  C      2.217239    1.619474    1.065255
  C     -3.314275    2.217871    0.897511
  O     -3.119881    2.743038   -0.188227
  N     -3.818432    2.825792    1.988706
  C     -4.105568    2.137722    3.242666
  C     -4.302271    4.196104    1.885003
  H     -3.988742    4.622902    0.938462
  H     -3.892638    4.789619    2.704006
  H     -5.393823    4.223507    1.948310
  H     -3.482209    1.257266    3.347373
  H     -5.157506    1.842053    3.295950
  H     -3.896385    2.818493    4.068293
  H     -1.027661   -2.201877   -2.590594
  H     -4.355185   -0.604076   -0.409987
  H     -3.469754   -2.126652   -2.170839
  H      1.181404   -1.503424   -2.128602
  H      2.805788   -0.147260   -0.869553
  H     -0.016658    3.242159    2.989208
  H      2.435800    3.111845    2.596063
  H      3.275306    1.528379    0.850295

----------------------------
CARTESIAN COORDINATES (A.U.)
----------------------------
  NO LB      ZA    FRAG     MASS         X           Y           Z
   0 C     6.0000    0    12.011   -6.225282   -1.221607   -1.168422
   1 C     6.0000    0    12.011   -5.275998   -2.839298   -3.029662
   2 C     6.0000    0    12.011   -2.718272   -2.915767   -3.469478
   3 C     6.0000    0    12.011   -4.629247    0.299538    0.215277
   4 C     6.0000    0    12.011   -1.976800    0.290446   -0.169989
   5 O     8.0000    0    15.999   -5.773591    1.685144    2.134631
   6 C     6.0000    0    12.011   -1.048365   -1.386750   -2.069141
   7 C     6.0000    0    12.011    1.607529   -1.546704   -2.565547
   8 C     6.0000    0    12.011    3.295716   -0.140323   -1.261164
   9 C     6.0000    0    12.011   -0.155750    1.822525    1.212841
  10 C     6.0000    0    12.011    2.460837    1.572026    0.649889
  11 N     7.0000    0    14.007   -0.961535    3.464649    2.997323
  12 C     6.0000    0    12.011    0.714689    4.836559    4.239123
  13 C     6.0000    0    12.011    3.326289    4.705983    3.824599
  14 C     6.0000    0    12.011    4.189975    3.060363    2.013041
  15 C     6.0000    0    12.011   -6.263072    4.191168    1.696050
  16 O     8.0000    0    15.999   -5.895721    5.183591   -0.355698
  17 N     7.0000    0    14.007   -7.215791    5.339974    3.758110
  18 C     6.0000    0    12.011   -7.758399    4.039710    6.127751
  19 C     6.0000    0    12.011   -8.130114    7.929487    3.562139
  20 H     1.0000    0     1.008   -7.537629    8.736018    1.773436
  21 H     1.0000    0     1.008   -7.356019    9.051069    5.109831
  22 H     1.0000    0     1.008  -10.192848    7.981271    3.681772
  23 H     1.0000    0     1.008   -6.580421    2.375889    6.325619
  24 H     1.0000    0     1.008   -9.746275    3.480975    6.228443
  25 H     1.0000    0     1.008   -7.363100    5.326180    7.687960
  26 H     1.0000    0     1.008   -1.941998   -4.160944   -4.895514
  27 H     1.0000    0     1.008   -8.230107   -1.141538   -0.774763
  28 H     1.0000    0     1.008   -6.556885   -4.018790   -4.102292
  29 H     1.0000    0     1.008    2.232530   -2.841060   -4.022475
  30 H     1.0000    0     1.008    5.302171   -0.278282   -1.643217
  31 H     1.0000    0     1.008   -0.031479    6.126792    5.648785
  32 H     1.0000    0     1.008    4.602994    5.880534    4.905848
  33 H     1.0000    0     1.008    6.189431    2.888218    1.606825

--------------------------------
INTERNAL COORDINATES (ANGSTROEM)
--------------------------------
 C      0   0   0     0.000000000000     0.00000000     0.00000000
 C      1   0   0     1.398297605674     0.00000000     0.00000000
 C      2   1   0     1.373951301349   119.42274131     0.00000000
 C      1   2   3     1.377470972668   120.79099922     0.31395076
 C      4   1   2     1.418351941812   121.89614310   359.74290822
 O      4   1   2     1.391378782101   115.41266667   184.54756945
 C      3   2   1     1.408787508948   120.79055598     0.00000000
 C      7   3   2     1.432280195193   119.01850437   179.23639038
 C      8   7   3     1.352179145566   121.47613897   180.63528803
 C      5   4   1     1.456507500282   125.49580268   180.33955306
 C     10   5   4     1.422511917932   119.13849355   178.74410764
 N     10   5   4     1.352276585091   119.99380364   358.45049152
 C     12  10   5     1.321241161125   119.25576293   179.84436796
 C     13  12  10     1.401004312033   123.86747870     0.04672248
 C     14  13  12     1.373392189511   117.95833819     0.25341211
 C      6   4   1     1.370977804334   117.93022201   258.54984262
 O     16   6   4     1.221645327698   122.42615588     5.24311666
 N     16   6   4     1.347015115947   111.72329816   184.06665216
 C     18  16   6     1.458870575008   123.85601149   357.51572095
 C     18  16   6     1.456917110783   119.41404764   187.22349315
 H     20  18  16     1.084618693071   109.64724444   348.07850228
 H     20  18  16     1.091249950457   109.47955814   228.03163960
 H     20  18  16     1.093729170644   110.54125601   108.54267669
 H     19  18  16     1.083855643216   110.66938081    25.67701408
 H     19  18  16     1.093999456904   111.01344432   264.25511213
 H     19  18  16     1.090351261487   108.57943079   145.13612512
 H      3   2   1     1.082764776606   120.64510158   179.71240075
 H      1   2   3     1.081995912348   120.78616221   180.60821633
 H      2   1   3     1.082217003043   119.83572643   179.82012459
 H      8   7   3     1.083020819274   117.87835891     0.42398559
 H      9   8   7     1.083309699203   121.00947281   179.74820271
 H     13  12  10     1.085602316992   116.30483182   179.90483375
 H     14  13  12     1.081730009855   120.32670282   180.02595439
 H     15  14  13     1.083517861176   121.11472192   179.69724360

---------------------------
INTERNAL COORDINATES (A.U.)
---------------------------
 C      0   0   0     0.000000000000     0.00000000     0.00000000
 C      1   0   0     2.642399528442     0.00000000     0.00000000
 C      2   1   0     2.596391680894   119.42274131     0.00000000
 C      1   2   3     2.603042895769   120.79099922     0.31395076
 C      4   1   2     2.680296731541   121.89614310   359.74290822
 O      4   1   2     2.629324846719   115.41266667   184.54756945
 C      3   2   1     2.662222572801   120.79055598     0.00000000
 C      7   3   2     2.706617315954   119.01850437   179.23639038
 C      8   7   3     2.555248269119   121.47613897   180.63528803
 C      5   4   1     2.752400287534   125.49580268   180.33955306
 C     10   5   4     2.688157947130   119.13849355   178.74410764
 N     10   5   4     2.555432403136   119.99380364   358.45049152
 C     12  10   5     2.496783951390   119.25576293   179.84436796
 C     13  12  10     2.647514462186   123.86747870     0.04672248
 C     14  13  12     2.595335112643   117.95833819     0.25341211
 C      6   4   1     2.590772585876   117.93022201   258.54984262
 O     16   6   4     2.308575102134   122.42615588     5.24311666
 N     16   6   4     2.545489667392   111.72329816   184.06665216
 C     18  16   6     2.756865851602   123.85601149   357.51572095
 C     18  16   6     2.753174339204   119.41404764   187.22349315
 H     20  18  16     2.049632289637   109.64724444   348.07850228
 H     20  18  16     2.062163550019   109.47955814   228.03163960
 H     20  18  16     2.066848597198   110.54125601   108.54267669
 H     19  18  16     2.048190334384   110.66938081    25.67701408
 H     19  18  16     2.067359364207   111.01344432   264.25511213
 H     19  18  16     2.060465273987   108.57943079   145.13612512
 H      3   2   1     2.046128895242   120.64510158   179.71240075
 H      1   2   3     2.044675952361   120.78616221   180.60821633
 H      2   1   3     2.045093753224   119.83572643   179.82012459
 H      8   7   3     2.046612745762   117.87835891     0.42398559
 H      9   8   7     2.047158649715   121.00947281   179.74820271
 H     13  12  10     2.051491069466   116.30483182   179.90483375
 H     14  13  12     2.044173469470   120.32670282   180.02595439
 H     15  14  13     2.047552018834   121.11472192   179.69724360

---------------------
BASIS SET INFORMATION
---------------------
There are 4 groups of distinct atoms

 Group   1 Type C   : 11s6p2d contracted to 5s3p2d pattern {62111/411/11}
 Group   2 Type O   : 11s6p2d contracted to 5s3p2d pattern {62111/411/11}
 Group   3 Type N   : 11s6p2d contracted to 5s3p2d pattern {62111/411/11}
 Group   4 Type H   : 5s1p contracted to 3s1p pattern {311/1}

Atom   0C    basis set group =>   1
Atom   1C    basis set group =>   1
Atom   2C    basis set group =>   1
Atom   3C    basis set group =>   1
Atom   4C    basis set group =>   1
Atom   5O    basis set group =>   2
Atom   6C    basis set group =>   1
Atom   7C    basis set group =>   1
Atom   8C    basis set group =>   1
Atom   9C    basis set group =>   1
Atom  10C    basis set group =>   1
Atom  11N    basis set group =>   3
Atom  12C    basis set group =>   1
Atom  13C    basis set group =>   1
Atom  14C    basis set group =>   1
Atom  15C    basis set group =>   1
Atom  16O    basis set group =>   2
Atom  17N    basis set group =>   3
Atom  18C    basis set group =>   1
Atom  19C    basis set group =>   1
Atom  20H    basis set group =>   4
Atom  21H    basis set group =>   4
Atom  22H    basis set group =>   4
Atom  23H    basis set group =>   4
Atom  24H    basis set group =>   4
Atom  25H    basis set group =>   4
Atom  26H    basis set group =>   4
Atom  27H    basis set group =>   4
Atom  28H    basis set group =>   4
Atom  29H    basis set group =>   4
Atom  30H    basis set group =>   4
Atom  31H    basis set group =>   4
Atom  32H    basis set group =>   4
Atom  33H    basis set group =>   4
---------------------------------
AUXILIARY/J BASIS SET INFORMATION
---------------------------------
There are 4 groups of distinct atoms

 Group   1 Type C   : 12s5p4d2f1g contracted to 6s4p3d1f1g pattern {711111/2111/211/2/1}
 Group   2 Type O   : 12s5p4d2f1g contracted to 6s4p3d1f1g pattern {711111/2111/211/2/1}
 Group   3 Type N   : 12s5p4d2f1g contracted to 6s4p3d1f1g pattern {711111/2111/211/2/1}
 Group   4 Type H   : 5s2p1d contracted to 3s1p1d pattern {311/2/1}

Atom   0C    basis set group =>   1
Atom   1C    basis set group =>   1
Atom   2C    basis set group =>   1
Atom   3C    basis set group =>   1
Atom   4C    basis set group =>   1
Atom   5O    basis set group =>   2
Atom   6C    basis set group =>   1
Atom   7C    basis set group =>   1
Atom   8C    basis set group =>   1
Atom   9C    basis set group =>   1
Atom  10C    basis set group =>   1
Atom  11N    basis set group =>   3
Atom  12C    basis set group =>   1
Atom  13C    basis set group =>   1
Atom  14C    basis set group =>   1
Atom  15C    basis set group =>   1
Atom  16O    basis set group =>   2
Atom  17N    basis set group =>   3
Atom  18C    basis set group =>   1
Atom  19C    basis set group =>   1
Atom  20H    basis set group =>   4
Atom  21H    basis set group =>   4
Atom  22H    basis set group =>   4
Atom  23H    basis set group =>   4
Atom  24H    basis set group =>   4
Atom  25H    basis set group =>   4
Atom  26H    basis set group =>   4
Atom  27H    basis set group =>   4
Atom  28H    basis set group =>   4
Atom  29H    basis set group =>   4
Atom  30H    basis set group =>   4
Atom  31H    basis set group =>   4
Atom  32H    basis set group =>   4
Atom  33H    basis set group =>   4
---------------------------------
AUXILIARY/C BASIS SET INFORMATION
---------------------------------
There are 4 groups of distinct atoms

 Group   1 Type C   : 8s6p5d3f1g contracted to 8s6p4d3f1g pattern {11111111/111111/2111/111/1}
 Group   2 Type O   : 8s6p5d3f1g contracted to 8s6p4d3f1g pattern {11111111/111111/2111/111/1}
 Group   3 Type N   : 8s6p5d3f1g contracted to 8s6p4d3f1g pattern {11111111/111111/2111/111/1}
 Group   4 Type H   : 4s3p2d contracted to 4s2p1d pattern {1111/21/2}

Atom   0C    basis set group =>   1
Atom   1C    basis set group =>   1
Atom   2C    basis set group =>   1
Atom   3C    basis set group =>   1
Atom   4C    basis set group =>   1
Atom   5O    basis set group =>   2
Atom   6C    basis set group =>   1
Atom   7C    basis set group =>   1
Atom   8C    basis set group =>   1
Atom   9C    basis set group =>   1
Atom  10C    basis set group =>   1
Atom  11N    basis set group =>   3
Atom  12C    basis set group =>   1
Atom  13C    basis set group =>   1
Atom  14C    basis set group =>   1
Atom  15C    basis set group =>   1
Atom  16O    basis set group =>   2
Atom  17N    basis set group =>   3
Atom  18C    basis set group =>   1
Atom  19C    basis set group =>   1
Atom  20H    basis set group =>   4
Atom  21H    basis set group =>   4
Atom  22H    basis set group =>   4
Atom  23H    basis set group =>   4
Atom  24H    basis set group =>   4
Atom  25H    basis set group =>   4
Atom  26H    basis set group =>   4
Atom  27H    basis set group =>   4
Atom  28H    basis set group =>   4
Atom  29H    basis set group =>   4
Atom  30H    basis set group =>   4
Atom  31H    basis set group =>   4
Atom  32H    basis set group =>   4
Atom  33H    basis set group =>   4
------------------------------------------------------------------------------
                           ORCA GTO INTEGRAL CALCULATION
                           -- RI-GTO INTEGRALS CHOSEN --
------------------------------------------------------------------------------
------------------------------------------------------------------------------
                   ___                                                        
                  /   \      - P O W E R E D   B Y -                         
                 /     \                                                     
                 |  |  |   _    _      __       _____    __    __             
                 |  |  |  | |  | |    /  \     |  _  \  |  |  /  |          
                  \  \/   | |  | |   /    \    | | | |  |  | /  /          
                 / \  \   | |__| |  /  /\  \   | |_| |  |  |/  /          
                |  |  |   |  __  | /  /__\  \  |    /   |      \           
                |  |  |   | |  | | |   __   |  |    \   |  |\   \          
                \     /   | |  | | |  |  |  |  | |\  \  |  | \   \       
                 \___/    |_|  |_| |__|  |__|  |_| \__\ |__|  \__/        
                                                                              
                      - O R C A' S   B I G   F R I E N D -                    
                                      &                                       
                       - I N T E G R A L  F E E D E R -                       
                                                                              
 v1 FN, 2020, v2 2021                                                         
------------------------------------------------------------------------------


Reading SHARK input file HBQ_GS.SHARKINP.tmp ... ok
----------------------
SHARK INTEGRAL PACKAGE
----------------------

Number of atoms                             ...     34
Number of basis functions                   ...    564
Number of shells                            ...    256
Maximum angular momentum                    ...      2
Integral batch strategy                     ... SHARK/LIBINT Hybrid
RI-J (if used) integral strategy            ... SPLIT-RIJ (Revised 2003 algorithm where possible)
Printlevel                                  ...      1
Contraction scheme used                     ... SEGMENTED contraction
Coulomb Range Separation                    ... NOT USED
Exchange Range Separation                   ... NOT USED
Finite Nucleus Model                        ... NOT USED
Auxiliary Coulomb fitting basis             ... AVAILABLE
   # of basis functions in Aux-J            ...   1134
   # of shells in Aux-J                     ...    370
   Maximum angular momentum in Aux-J        ...      4
Auxiliary J/K fitting basis                 ... NOT available
Auxiliary Correlation fitting basis         ... AVAILABLE
   # of basis functions in Aux-C            ...   1730
   # of shells in Aux-C                     ...    538
   Maximum angular momentum in Aux-C        ...      4
Auxiliary 'external' fitting basis          ... NOT available
Integral threshold                          ...     2.500000e-11
Primitive cut-off                           ...     2.500000e-12
Primitive pair pre-selection threshold      ...     2.500000e-12

Calculating pre-screening integrals         ... done (  0.1 sec) Dimension = 256
Organizing shell pair data                  ... done (  2.6 sec)
Shell pair information
Total number of shell pairs                 ...     32896
Shell pairs after pre-screening             ...     24974
Total number of primitive shell pairs       ...    108362
Primitive shell pairs kept                  ...     54597
          la=0 lb=0:   7268 shell pairs
          la=1 lb=0:   8166 shell pairs
          la=1 lb=1:   2303 shell pairs
          la=2 lb=0:   4198 shell pairs
          la=2 lb=1:   2386 shell pairs
          la=2 lb=2:    653 shell pairs

Calculating one electron integrals          ... done (  0.1 sec)
Calculating RI/J V-Matrix + Cholesky decomp.... done (  1.8 sec)
Calculating RI/C V-Matrix + Cholesky decomp.... done (  4.2 sec)
Calculating Nuclear repulsion               ... done (  0.0 sec) ENN=   1509.245597815369 Eh

SHARK setup successfully completed in  12.4 seconds

Maximum memory used throughout the entire GTOINT-calculation: 193.0 MB
-------------------------------------------------------------------------------
                                 ORCA SCF
-------------------------------------------------------------------------------

------------
SCF SETTINGS
------------
Hamiltonian:
 Density Functional     Method          .... DFT(GTOs)
 Exchange Functional    Exchange        .... B88
   X-Alpha parameter    XAlpha          ....  0.666667
   Becke's b parameter  XBeta           ....  0.004200
 Correlation Functional Correlation     .... LYP
 LDA part of GGA corr.  LDAOpt          .... VWN-3
 Gradients option       PostSCFGGA      .... off
 Hybrid DFT is turned on
   Fraction HF Exchange ScalHFX         ....  0.200000
   Scaling of DF-GGA-X  ScalDFX         ....  0.720000
   Scaling of DF-GGA-C  ScalDFC         ....  0.810000
   Scaling of DF-LDA-C  ScalLDAC        ....  1.000000
   Perturbative correction              ....  0.000000
   Density functional embedding theory  .... OFF
   NL short-range parameter             ....  4.800000
 RI-approximation to the Coulomb term is turned on
   Number of AuxJ basis functions       .... 1134
   RIJ-COSX (HFX calculated with COS-X)).... on


General Settings:
 Integral files         IntName         .... HBQ_GS
 Hartree-Fock type      HFTyp           .... RHF
 Total Charge           Charge          ....    0
 Multiplicity           Mult            ....    1
 Number of Electrons    NEL             ....  140
 Basis Dimension        Dim             ....  564
 Nuclear Repulsion      ENuc            ....   1509.2455978154 Eh

Convergence Acceleration:
 DIIS                   CNVDIIS         .... on
   Start iteration      DIISMaxIt       ....    12
   Startup error        DIISStart       ....  0.200000
   # of expansion vecs  DIISMaxEq       ....     5
   Bias factor          DIISBfac        ....   1.050
   Max. coefficient     DIISMaxC        ....  10.000
 Trust-Rad. Augm. Hess. CNVTRAH         .... auto
   Auto Start mean grad. ratio tolernc. ....  1.125000
   Auto Start start iteration           ....    20
   Auto Start num. interpolation iter.  ....    10
   Max. Number of Micro iterations      ....    16
   Max. Number of Macro iterations      .... Maxiter - #DIIS iter
   Number of Davidson start vectors     ....     2
   Converg. threshold I  (grad. norm)   ....   1.000e-05
   Converg. threshold II (energy diff.) ....   1.000e-08
   Grad. Scal. Fac. for Micro threshold ....   0.100
   Minimum threshold for Micro iter.    ....   0.010
   NR start threshold (gradient norm)   ....   0.001
   Initial trust radius                 ....   0.400
   Minimum AH scaling param. (alpha)    ....   1.000
   Maximum AH scaling param. (alpha)    .... 1000.000
   Orbital update algorithm             .... Taylor
   White noise on init. David. guess    .... on
   Maximum white noise                  ....   0.010
   Quad. conv. algorithm                .... NR
 SOSCF                  CNVSOSCF        .... on
   Start iteration      SOSCFMaxIt      ....   150
   Startup grad/error   SOSCFStart      ....  0.003300
 Level Shifting         CNVShift        .... on
   Level shift para.    LevelShift      ....    0.2500
   Turn off err/grad.   ShiftErr        ....    0.0010
 Zerner damping         CNVZerner       .... off
 Static damping         CNVDamp         .... on
   Fraction old density DampFac         ....    0.7000
   Max. Damping (<1)    DampMax         ....    0.9800
   Min. Damping (>=0)   DampMin         ....    0.0000
   Turn off err/grad.   DampErr         ....    0.1000
 Fernandez-Rico         CNVRico         .... off

SCF Procedure:
 Maximum # iterations   MaxIter         ....   125
 SCF integral mode      SCFMode         .... Direct
   Integral package                     .... SHARK and LIBINT hybrid scheme
 Reset frequency        DirectResetFreq ....    20
 Integral Threshold     Thresh          ....  2.500e-11 Eh
 Primitive CutOff       TCut            ....  2.500e-12 Eh

Convergence Tolerance:
 Convergence Check Mode ConvCheckMode   .... Total+1el-Energy
 Convergence forced     ConvForced      .... 0
 Energy Change          TolE            ....  1.000e-08 Eh
 1-El. energy change                    ....  1.000e-05 Eh
 Orbital Gradient       TolG            ....  1.000e-05
 Orbital Rotation angle TolX            ....  1.000e-05
 DIIS Error             TolErr          ....  5.000e-07


Diagonalization of the overlap matrix:
Smallest eigenvalue                        ... 3.810e-06
Time for diagonalization                   ...    0.026 sec
Threshold for overlap eigenvalues          ... 1.000e-08
Number of eigenvalues below threshold      ... 0
Time for construction of square roots      ...    0.236 sec
Total time needed                          ...    0.262 sec

Time for model grid setup =    1.032 sec

------------------------------
INITIAL GUESS: MODEL POTENTIAL
------------------------------
Loading Hartree-Fock densities                     ... done
Calculating cut-offs                               ... done
Initializing the effective Hamiltonian             ... done
Setting up the integral package (SHARK)            ... done
Starting the Coulomb interaction                   ... done (   1.0 sec)
Reading the grid                                   ... done
Mapping shells                                     ... done
Starting the XC term evaluation                    ... done (   0.8 sec)
  promolecular density results
     # of electrons  =    139.975393151
     EX              =   -116.039107518
     EC              =     -4.784476576
     EX+EC           =   -120.823584094
Transforming the Hamiltonian                       ... done (   0.0 sec)
Diagonalizing the Hamiltonian                      ... done (   0.0 sec)
Back transforming the eigenvectors                 ... done (   0.0 sec)
Now organizing SCF variables                       ... done
                      ------------------
                      INITIAL GUESS DONE (   3.4 sec)
                      ------------------
-------------------
DFT GRID GENERATION
-------------------

General Integration Accuracy     IntAcc      ... 4.388
Radial Grid Type                 RadialGrid  ... OptM3 with GC (2021)
Angular Grid (max. ang.)         AngularGrid ... 4 (Lebedev-302)
Angular grid pruning method      GridPruning ... 4 (adaptive)
Weight generation scheme         WeightScheme... Becke
Basis function cutoff            BFCut       ... 1.0000e-11
Integration weight cutoff        WCut        ... 1.0000e-14
Angular grids for H and He will be reduced by one unit
Partially contracted basis set               ... off
Rotationally invariant grid construction     ... off

Total number of grid points                  ...   164452
Total number of batches                      ...     2587
Average number of points per batch           ...       63
Average number of grid points per atom       ...     4837
Time for grid setup =    3.325 sec

--------------------
COSX GRID GENERATION
--------------------

GRIDX 1
-------
General Integration Accuracy     IntAcc      ... 3.816
Radial Grid Type                 RadialGrid  ... OptM3 with GC (2021)
Angular Grid (max. ang.)         AngularGrid ... 1 (Lebedev-50)
Angular grid pruning method      GridPruning ... 4 (adaptive)
Weight generation scheme         WeightScheme... Becke
Basis function cutoff            BFCut       ... 1.0000e-11
Integration weight cutoff        WCut        ... 1.0000e-14
Angular grids for H and He will be reduced by one unit
Partially contracted basis set               ... on
Rotationally invariant grid construction     ... off

Total number of grid points                  ...    20888
Total number of batches                      ...      343
Average number of points per batch           ...       60
Average number of grid points per atom       ...      614
UseSFitting                                  ... on

GRIDX 2
-------
General Integration Accuracy     IntAcc      ... 4.020
Radial Grid Type                 RadialGrid  ... OptM3 with GC (2021)
Angular Grid (max. ang.)         AngularGrid ... 2 (Lebedev-110)
Angular grid pruning method      GridPruning ... 4 (adaptive)
Weight generation scheme         WeightScheme... Becke
Basis function cutoff            BFCut       ... 1.0000e-11
Integration weight cutoff        WCut        ... 1.0000e-14
Angular grids for H and He will be reduced by one unit
Partially contracted basis set               ... on
Rotationally invariant grid construction     ... off

Total number of grid points                  ...    45660
Total number of batches                      ...      730
Average number of points per batch           ...       62
Average number of grid points per atom       ...     1343
UseSFitting                                  ... on

GRIDX 3
-------
General Integration Accuracy     IntAcc      ... 4.338
Radial Grid Type                 RadialGrid  ... OptM3 with GC (2021)
Angular Grid (max. ang.)         AngularGrid ... 3 (Lebedev-194)
Angular grid pruning method      GridPruning ... 4 (adaptive)
Weight generation scheme         WeightScheme... Becke
Basis function cutoff            BFCut       ... 1.0000e-11
Integration weight cutoff        WCut        ... 1.0000e-14
Angular grids for H and He will be reduced by one unit
Partially contracted basis set               ... on
Rotationally invariant grid construction     ... off

Total number of grid points                  ...   100021
Total number of batches                      ...     1580
Average number of points per batch           ...       63
Average number of grid points per atom       ...     2942
UseSFitting                                  ... on

Time for X-Grid setup             =    7.227 sec


--------------------
CPCM SOLVATION MODEL
--------------------
CPCM parameters:
  Epsilon                                         ...      80.4000
  Refrac                                          ...       1.3300
  Rsolv                                           ...       1.3000
  Surface type                                    ... GAUSSIAN VDW
  Epsilon function type                           ...         CPCM
Radii:
 Radius for C  used is    3.8550 Bohr (=   2.0400 Ang.)
 Radius for O  used is    3.4469 Bohr (=   1.8240 Ang.)
 Radius for N  used is    3.5149 Bohr (=   1.8600 Ang.)
 Radius for H  used is    2.4944 Bohr (=   1.3200 Ang.)
Calculating surface                               ...        done! (  0.0s)
GEPOL surface points                              ...         1780
GEPOL Volume                                      ...    2108.3349
GEPOL Surface-area                                ...    1072.8420
Calculating surface distance matrix               ...        done! (  0.0s)
Performing Cholesky decomposition & store         ...        done! (  2.2s)
Overall time for CPCM initialization              ...                 2.2s
--------------
SCF ITERATIONS
--------------
ITER       Energy         Delta-E        Max-DP      RMS-DP      [F,P]     Damp
               ***  Starting incremental Fock matrix formation  ***
  0   -877.9531273357   0.000000000000 0.11053922  0.00154601  0.3160876 0.7000
  1   -878.1751783196  -0.222050983918 0.12703697  0.00134612  0.1245703 0.7000
                               ***Turning on DIIS***
  2   -878.2660854668  -0.090907147133 0.16416015  0.00235093  0.0345924 0.0000
  3   -878.4089034527  -0.142817985899 0.13055760  0.00105908  0.0598448 0.0000
  4   -878.4383732795  -0.029469826864 0.03748717  0.00035524  0.0158851 0.0000
  5   -878.4401931694  -0.001819889913 0.02327770  0.00016912  0.0093759 0.0000
                      *** Initiating the SOSCF procedure ***
                           *** Shutting down DIIS ***
                      *** Re-Reading the Fockian *** 
                      *** Removing any level shift *** 
ITER      Energy       Delta-E        Grad      Rot      Max-DP    RMS-DP
  6   -878.44033850  -0.0001453319  0.000265  0.000265  0.005870  0.000052
               *** Restarting incremental Fock matrix formation ***
  7   -878.44034861  -0.0000101132  0.000136  0.000525  0.007299  0.000057
  8   -878.44034760   0.0000010133  0.000269  0.000332  0.001121  0.000011
  9   -878.44035089  -0.0000032921  0.000034  0.000074  0.001004  0.000010
 10   -878.44035083   0.0000000618  0.000045  0.000044  0.000684  0.000004
 11   -878.44035095  -0.0000001164  0.000005  0.000027  0.000570  0.000005
 12   -878.44035094   0.0000000108  0.000007  0.000016  0.000156  0.000001
                  ***Gradient check signals convergence***
              ***Rediagonalizing the Fockian in SOSCF/NRSCF***

               *****************************************************
               *                     SUCCESS                       *
               *           SCF CONVERGED AFTER  13 CYCLES          *
               *****************************************************

Old exchange energy                            =    -23.551450547 Eh
New exchange energy                            =    -23.551465295 Eh
Exchange energy change after final integration =     -0.000014748 Eh
Total energy after final integration           =   -878.440365685 Eh
Final COS-X integration done in                =    58.642 sec

----------------
TOTAL SCF ENERGY
----------------

Total Energy       :         -878.44036569 Eh          -23903.57758 eV

Components:
Nuclear Repulsion  :         1509.24559782 Eh           41068.66061 eV
Electronic Energy  :        -2387.68596350 Eh          -64972.23819 eV
One Electron Energy:        -4191.95597859 Eh         -114068.92133 eV
Two Electron Energy:         1804.27001509 Eh           49096.68314 eV
Max COSX asymmetry :            0.00000128 Eh               0.00003 eV
CPCM Dielectric    :           -0.02397464 Eh              -0.65238 eV

Virial components:
Potential Energy   :        -1752.64630037 Eh          -47691.93044 eV
Kinetic Energy     :          874.20593468 Eh           23788.35286 eV
Virial Ratio       :            2.00484375


DFT components:
N(Alpha)           :       70.000054470471 electrons
N(Beta)            :       70.000054470471 electrons
N(Total)           :      140.000108940942 electrons
E(X)               :      -93.626052783428 Eh       
E(C)               :       -6.157137275759 Eh       
E(XC)              :      -99.783190059186 Eh       
DFET-embed. en.    :        0.000000000000 Eh       
CPCM Solvation Model Properties:
Surface-charge          :           -0.03268730
Charge-correction       :           -0.00047020 Eh              -0.01279 eV
Free-energy (cav+disp)  :  This term is not implemented in the current solvation scheme

---------------
SCF CONVERGENCE
---------------

  Last Energy change         ...    1.7360e-10  Tolerance :   1.0000e-08
  Last MAX-Density change    ...    1.6653e-15  Tolerance :   1.0000e-07
  Last RMS-Density change    ...    1.6732e-17  Tolerance :   5.0000e-09
  Last Orbital Gradient      ...    1.3283e-06  Tolerance :   1.0000e-05
  Last Orbital Rotation      ...    4.5045e-06  Tolerance :   1.0000e-05

             **** THE GBW FILE WAS UPDATED (HBQ_GS.gbw) ****
             **** DENSITY HBQ_GS.scfp WAS UPDATED ****
             **** ENERGY FILE WAS UPDATED (HBQ_GS.en.tmp) ****
             **** THE GBW FILE WAS UPDATED (HBQ_GS.gbw) ****
             **** DENSITY HBQ_GS.scfp WAS UPDATED ****
----------------
ORBITAL ENERGIES
----------------

  NO   OCC          E(Eh)            E(eV) 
   0   2.0000     -19.175270      -521.7856 
   1   2.0000     -19.101345      -519.7740 
   2   2.0000     -14.352792      -390.5593 
   3   2.0000     -14.318770      -389.6335 
   4   2.0000     -10.322170      -280.8805 
   5   2.0000     -10.248213      -278.8680 
   6   2.0000     -10.226618      -278.2804 
   7   2.0000     -10.212380      -277.8930 
   8   2.0000     -10.202649      -277.6282 
   9   2.0000     -10.198706      -277.5209 
  10   2.0000     -10.198029      -277.5025 
  11   2.0000     -10.197028      -277.4752 
  12   2.0000     -10.196731      -277.4672 
  13   2.0000     -10.193873      -277.3894 
  14   2.0000     -10.184055      -277.1222 
  15   2.0000     -10.184041      -277.1218 
  16   2.0000     -10.183942      -277.1191 
  17   2.0000     -10.183282      -277.1012 
  18   2.0000     -10.181963      -277.0653 
  19   2.0000     -10.180967      -277.0382 
  20   2.0000      -1.117018       -30.3956 
  21   2.0000      -1.023825       -27.8597 
  22   2.0000      -0.956405       -26.0251 
  23   2.0000      -0.947738       -25.7893 
  24   2.0000      -0.882365       -24.0104 
  25   2.0000      -0.840252       -22.8644 
  26   2.0000      -0.808735       -22.0068 
  27   2.0000      -0.784642       -21.3512 
  28   2.0000      -0.752915       -20.4878 
  29   2.0000      -0.745726       -20.2922 
  30   2.0000      -0.722257       -19.6536 
  31   2.0000      -0.707659       -19.2564 
  32   2.0000      -0.657091       -17.8804 
  33   2.0000      -0.649660       -17.6781 
  34   2.0000      -0.632758       -17.2182 
  35   2.0000      -0.620620       -16.8879 
  36   2.0000      -0.575544       -15.6614 
  37   2.0000      -0.548330       -14.9208 
  38   2.0000      -0.537777       -14.6337 
  39   2.0000      -0.532134       -14.4801 
  40   2.0000      -0.517712       -14.0877 
  41   2.0000      -0.497674       -13.5424 
  42   2.0000      -0.493954       -13.4412 
  43   2.0000      -0.484692       -13.1891 
  44   2.0000      -0.480505       -13.0752 
  45   2.0000      -0.467698       -12.7267 
  46   2.0000      -0.446118       -12.1395 
  47   2.0000      -0.445835       -12.1318 
  48   2.0000      -0.437839       -11.9142 
  49   2.0000      -0.430841       -11.7238 
  50   2.0000      -0.420783       -11.4501 
  51   2.0000      -0.415388       -11.3033 
  52   2.0000      -0.408566       -11.1177 
  53   2.0000      -0.407056       -11.0766 
  54   2.0000      -0.406346       -11.0572 
  55   2.0000      -0.402062       -10.9407 
  56   2.0000      -0.386873       -10.5274 
  57   2.0000      -0.385488       -10.4897 
  58   2.0000      -0.378078       -10.2880 
  59   2.0000      -0.364432        -9.9167 
  60   2.0000      -0.357057        -9.7160 
  61   2.0000      -0.338260        -9.2045 
  62   2.0000      -0.320284        -8.7154 
  63   2.0000      -0.307882        -8.3779 
  64   2.0000      -0.291394        -7.9292 
  65   2.0000      -0.283124        -7.7042 
  66   2.0000      -0.263576        -7.1723 
  67   2.0000      -0.251988        -6.8569 
  68   2.0000      -0.250442        -6.8149 
  69   2.0000      -0.230651        -6.2763 
  70   0.0000      -0.063806        -1.7363 
  71   0.0000      -0.055690        -1.5154 
  72   0.0000      -0.018444        -0.5019 
  73   0.0000       0.008467         0.2304 
  74   0.0000       0.031917         0.8685 
  75   0.0000       0.043290         1.1780 
  76   0.0000       0.053899         1.4667 
  77   0.0000       0.059380         1.6158 
  78   0.0000       0.063822         1.7367 
  79   0.0000       0.077226         2.1014 
  80   0.0000       0.079256         2.1567 
  81   0.0000       0.083536         2.2731 
  82   0.0000       0.088809         2.4166 
  83   0.0000       0.092333         2.5125 
  84   0.0000       0.099664         2.7120 
  85   0.0000       0.106358         2.8941 
  86   0.0000       0.111118         3.0237 
  87   0.0000       0.115029         3.1301 
  88   0.0000       0.116686         3.1752 
  89   0.0000       0.122238         3.3263 
  90   0.0000       0.128571         3.4986 
  91   0.0000       0.131619         3.5815 
  92   0.0000       0.145278         3.9532 
  93   0.0000       0.146773         3.9939 
  94   0.0000       0.152464         4.1488 
  95   0.0000       0.160442         4.3659 
  96   0.0000       0.167534         4.5588 
  97   0.0000       0.169915         4.6236 
  98   0.0000       0.174118         4.7380 
  99   0.0000       0.178112         4.8467 
 100   0.0000       0.186784         5.0826 
 101   0.0000       0.188992         5.1427 
 102   0.0000       0.192863         5.2481 
 103   0.0000       0.201041         5.4706 
 104   0.0000       0.208003         5.6601 
 105   0.0000       0.216746         5.8979 
 106   0.0000       0.218932         5.9575 
 107   0.0000       0.221304         6.0220 
 108   0.0000       0.226479         6.1628 
 109   0.0000       0.236117         6.4251 
 110   0.0000       0.240151         6.5348 
 111   0.0000       0.246122         6.6973 
 112   0.0000       0.254274         6.9192 
 113   0.0000       0.260529         7.0894 
 114   0.0000       0.262631         7.1465 
 115   0.0000       0.266022         7.2388 
 116   0.0000       0.267691         7.2842 
 117   0.0000       0.279777         7.6131 
 118   0.0000       0.282064         7.6754 
 119   0.0000       0.287395         7.8204 
 120   0.0000       0.287983         7.8364 
 121   0.0000       0.296544         8.0694 
 122   0.0000       0.299279         8.1438 
 123   0.0000       0.303711         8.2644 
 124   0.0000       0.308355         8.3908 
 125   0.0000       0.315857         8.5949 
 126   0.0000       0.317054         8.6275 
 127   0.0000       0.324004         8.8166 
 128   0.0000       0.330447         8.9919 
 129   0.0000       0.336711         9.1624 
 130   0.0000       0.340116         9.2550 
 131   0.0000       0.343881         9.3575 
 132   0.0000       0.348294         9.4776 
 133   0.0000       0.356526         9.7016 
 134   0.0000       0.358584         9.7576 
 135   0.0000       0.368194        10.0191 
 136   0.0000       0.373744        10.1701 
 137   0.0000       0.382002        10.3948 
 138   0.0000       0.382075        10.3968 
 139   0.0000       0.394236        10.7277 
 140   0.0000       0.395164        10.7530 
 141   0.0000       0.400721        10.9042 
 142   0.0000       0.403286        10.9740 
 143   0.0000       0.408005        11.1024 
 144   0.0000       0.412689        11.2298 
 145   0.0000       0.414696        11.2845 
 146   0.0000       0.419405        11.4126 
 147   0.0000       0.420848        11.4518 
 148   0.0000       0.431218        11.7341 
 149   0.0000       0.438029        11.9194 
 150   0.0000       0.444059        12.0834 
 151   0.0000       0.450798        12.2668 
 152   0.0000       0.461214        12.5503 
 153   0.0000       0.463923        12.6240 
 154   0.0000       0.466563        12.6958 
 155   0.0000       0.467574        12.7233 
 156   0.0000       0.469434        12.7739 
 157   0.0000       0.475827        12.9479 
 158   0.0000       0.477193        12.9851 
 159   0.0000       0.485447        13.2097 
 160   0.0000       0.492602        13.4044 
 161   0.0000       0.498239        13.5578 
 162   0.0000       0.500170        13.6103 
 163   0.0000       0.505421        13.7532 
 164   0.0000       0.515413        14.0251 
 165   0.0000       0.519898        14.1471 
 166   0.0000       0.522286        14.2121 
 167   0.0000       0.526942        14.3388 
 168   0.0000       0.535948        14.5839 
 169   0.0000       0.539128        14.6704 
 170   0.0000       0.548724        14.9315 
 171   0.0000       0.554361        15.0849 
 172   0.0000       0.559497        15.2247 
 173   0.0000       0.576579        15.6895 
 174   0.0000       0.579359        15.7652 
 175   0.0000       0.590541        16.0694 
 176   0.0000       0.601069        16.3559 
 177   0.0000       0.603495        16.4219 
 178   0.0000       0.606962        16.5163 
 179   0.0000       0.610323        16.6077 
 180   0.0000       0.611980        16.6528 
 181   0.0000       0.620436        16.8829 
 182   0.0000       0.635029        17.2800 
 183   0.0000       0.642547        17.4846 
 184   0.0000       0.656328        17.8596 
 185   0.0000       0.659867        17.9559 
 186   0.0000       0.663380        18.0515 
 187   0.0000       0.674595        18.3567 
 188   0.0000       0.676182        18.3998 
 189   0.0000       0.685456        18.6522 
 190   0.0000       0.689079        18.7508 
 191   0.0000       0.690931        18.8012 
 192   0.0000       0.699477        19.0337 
 193   0.0000       0.701297        19.0833 
 194   0.0000       0.705610        19.2006 
 195   0.0000       0.717111        19.5136 
 196   0.0000       0.720055        19.5937 
 197   0.0000       0.732106        19.9216 
 198   0.0000       0.739263        20.1164 
 199   0.0000       0.745670        20.2907 
 200   0.0000       0.754129        20.5209 
 201   0.0000       0.758382        20.6366 
 202   0.0000       0.763463        20.7749 
 203   0.0000       0.773541        21.0491 
 204   0.0000       0.778992        21.1975 
 205   0.0000       0.785786        21.3823 
 206   0.0000       0.792193        21.5567 
 207   0.0000       0.798830        21.7373 
 208   0.0000       0.803104        21.8536 
 209   0.0000       0.811919        22.0935 
 210   0.0000       0.822038        22.3688 
 211   0.0000       0.826757        22.4972 
 212   0.0000       0.837746        22.7962 
 213   0.0000       0.842819        22.9343 
 214   0.0000       0.845006        22.9938 
 215   0.0000       0.852825        23.2065 
 216   0.0000       0.858820        23.3697 
 217   0.0000       0.864844        23.5336 
 218   0.0000       0.871264        23.7083 
 219   0.0000       0.875629        23.8271 
 220   0.0000       0.880544        23.9608 
 221   0.0000       0.890166        24.2227 
 222   0.0000       0.912120        24.8201 
 223   0.0000       0.916640        24.9430 
 224   0.0000       0.924842        25.1662 
 225   0.0000       0.935031        25.4435 
 226   0.0000       0.947729        25.7890 
 227   0.0000       0.948632        25.8136 
 228   0.0000       0.956399        26.0249 
 229   0.0000       0.972657        26.4673 
 230   0.0000       0.984032        26.7769 
 231   0.0000       0.996626        27.1196 
 232   0.0000       1.001427        27.2502 
 233   0.0000       1.004572        27.3358 
 234   0.0000       1.018086        27.7035 
 235   0.0000       1.024734        27.8844 
 236   0.0000       1.029275        28.0080 
 237   0.0000       1.031671        28.0732 
 238   0.0000       1.040726        28.3196 
 239   0.0000       1.054844        28.7038 
 240   0.0000       1.079825        29.3835 
 241   0.0000       1.084514        29.5111 
 242   0.0000       1.091516        29.7016 
 243   0.0000       1.098119        29.8813 
 244   0.0000       1.101498        29.9733 
 245   0.0000       1.106036        30.0968 
 246   0.0000       1.118527        30.4367 
 247   0.0000       1.137702        30.9584 
 248   0.0000       1.152046        31.3488 
 249   0.0000       1.156222        31.4624 
 250   0.0000       1.183656        32.2089 
 251   0.0000       1.188343        32.3365 
 252   0.0000       1.189609        32.3709 
 253   0.0000       1.199446        32.6386 
 254   0.0000       1.207989        32.8711 
 255   0.0000       1.210783        32.9471 
 256   0.0000       1.223406        33.2906 
 257   0.0000       1.250007        34.0144 
 258   0.0000       1.251979        34.0681 
 259   0.0000       1.263249        34.3748 
 260   0.0000       1.271250        34.5925 
 261   0.0000       1.279464        34.8160 
 262   0.0000       1.287547        35.0359 
 263   0.0000       1.289119        35.0787 
 264   0.0000       1.306573        35.5537 
 265   0.0000       1.324417        36.0392 
 266   0.0000       1.337917        36.4066 
 267   0.0000       1.341747        36.5108 
 268   0.0000       1.347186        36.6588 
 269   0.0000       1.359406        36.9913 
 270   0.0000       1.364360        37.1261 
 271   0.0000       1.375067        37.4175 
 272   0.0000       1.396235        37.9935 
 273   0.0000       1.400114        38.0990 
 274   0.0000       1.402588        38.1663 
 275   0.0000       1.413059        38.4513 
 276   0.0000       1.419803        38.6348 
 277   0.0000       1.427785        38.8520 
 278   0.0000       1.442418        39.2502 
 279   0.0000       1.446582        39.3635 
 280   0.0000       1.456829        39.6423 
 281   0.0000       1.461153        39.7600 
 282   0.0000       1.466925        39.9170 
 283   0.0000       1.478476        40.2314 
 284   0.0000       1.494363        40.6637 
 285   0.0000       1.501381        40.8546 
 286   0.0000       1.506074        40.9824 
 287   0.0000       1.515240        41.2318 
 288   0.0000       1.519620        41.3510 
 289   0.0000       1.531186        41.6657 
 290   0.0000       1.537674        41.8422 
 291   0.0000       1.546816        42.0910 
 292   0.0000       1.551270        42.2122 
 293   0.0000       1.556580        42.3567 
 294   0.0000       1.563381        42.5418 
 295   0.0000       1.567379        42.6505 
 296   0.0000       1.572245        42.7830 
 297   0.0000       1.578589        42.9556 
 298   0.0000       1.579824        42.9892 
 299   0.0000       1.589620        43.2558 
 300   0.0000       1.592185        43.3255 
 301   0.0000       1.605176        43.6791 
 302   0.0000       1.611998        43.8647 
 303   0.0000       1.616571        43.9891 
 304   0.0000       1.626820        44.2680 
 305   0.0000       1.631287        44.3896 
 306   0.0000       1.643968        44.7346 
 307   0.0000       1.662835        45.2480 
 308   0.0000       1.666797        45.3559 
 309   0.0000       1.672013        45.4978 
 310   0.0000       1.677996        45.6606 
 311   0.0000       1.683809        45.8188 
 312   0.0000       1.688329        45.9418 
 313   0.0000       1.692799        46.0634 
 314   0.0000       1.710554        46.5465 
 315   0.0000       1.712960        46.6120 
 316   0.0000       1.729692        47.0673 
 317   0.0000       1.737905        47.2908 
 318   0.0000       1.742019        47.4028 
 319   0.0000       1.757786        47.8318 
 320   0.0000       1.766124        48.0587 
 321   0.0000       1.768927        48.1350 
 322   0.0000       1.772876        48.2424 
 323   0.0000       1.781826        48.4859 
 324   0.0000       1.793281        48.7977 
 325   0.0000       1.815666        49.4068 
 326   0.0000       1.828888        49.7666 
 327   0.0000       1.836320        49.9688 
 328   0.0000       1.856233        50.5107 
 329   0.0000       1.862066        50.6694 
 330   0.0000       1.874274        51.0016 
 331   0.0000       1.892372        51.4941 
 332   0.0000       1.899254        51.6813 
 333   0.0000       1.909622        51.9635 
 334   0.0000       1.921041        52.2742 
 335   0.0000       1.931310        52.5536 
 336   0.0000       1.939603        52.7793 
 337   0.0000       1.948940        53.0333 
 338   0.0000       1.966110        53.5006 
 339   0.0000       1.991521        54.1920 
 340   0.0000       2.000833        54.4454 
 341   0.0000       2.005450        54.5711 
 342   0.0000       2.028951        55.2106 
 343   0.0000       2.039375        55.4942 
 344   0.0000       2.054520        55.9063 
 345   0.0000       2.058447        56.0132 
 346   0.0000       2.069449        56.3126 
 347   0.0000       2.079851        56.5956 
 348   0.0000       2.095217        57.0137 
 349   0.0000       2.103682        57.2441 
 350   0.0000       2.136970        58.1499 
 351   0.0000       2.150090        58.5069 
 352   0.0000       2.177372        59.2493 
 353   0.0000       2.189415        59.5770 
 354   0.0000       2.197680        59.8019 
 355   0.0000       2.208593        60.0989 
 356   0.0000       2.217220        60.3336 
 357   0.0000       2.223372        60.5010 
 358   0.0000       2.229073        60.6562 
 359   0.0000       2.237785        60.8932 
 360   0.0000       2.251505        61.2666 
 361   0.0000       2.268738        61.7355 
 362   0.0000       2.281710        62.0885 
 363   0.0000       2.287963        62.2586 
 364   0.0000       2.297868        62.5282 
 365   0.0000       2.309709        62.8504 
 366   0.0000       2.322271        63.1922 
 367   0.0000       2.333951        63.5100 
 368   0.0000       2.340760        63.6953 
 369   0.0000       2.347984        63.8919 
 370   0.0000       2.353626        64.0454 
 371   0.0000       2.361659        64.2640 
 372   0.0000       2.373624        64.5896 
 373   0.0000       2.390366        65.0452 
 374   0.0000       2.400527        65.3217 
 375   0.0000       2.403280        65.3966 
 376   0.0000       2.410636        65.5968 
 377   0.0000       2.436641        66.3044 
 378   0.0000       2.439902        66.3931 
 379   0.0000       2.446242        66.5656 
 380   0.0000       2.456840        66.8540 
 381   0.0000       2.467669        67.1487 
 382   0.0000       2.474862        67.3444 
 383   0.0000       2.476254        67.3823 
 384   0.0000       2.495805        67.9143 
 385   0.0000       2.513011        68.3825 
 386   0.0000       2.534368        68.9637 
 387   0.0000       2.560036        69.6621 
 388   0.0000       2.572482        70.0008 
 389   0.0000       2.581633        70.2498 
 390   0.0000       2.599339        70.7316 
 391   0.0000       2.612644        71.0937 
 392   0.0000       2.628596        71.5277 
 393   0.0000       2.637140        71.7602 
 394   0.0000       2.655796        72.2679 
 395   0.0000       2.665953        72.5443 
 396   0.0000       2.674093        72.7658 
 397   0.0000       2.676301        72.8259 
 398   0.0000       2.686990        73.1167 
 399   0.0000       2.702891        73.5494 
 400   0.0000       2.704235        73.5860 
 401   0.0000       2.710435        73.7547 
 402   0.0000       2.723178        74.1015 
 403   0.0000       2.727289        74.2133 
 404   0.0000       2.734675        74.4143 
 405   0.0000       2.749374        74.8143 
 406   0.0000       2.769512        75.3623 
 407   0.0000       2.771651        75.4205 
 408   0.0000       2.786462        75.8235 
 409   0.0000       2.800833        76.2146 
 410   0.0000       2.815423        76.6116 
 411   0.0000       2.830497        77.0217 
 412   0.0000       2.833118        77.0931 
 413   0.0000       2.840319        77.2890 
 414   0.0000       2.852316        77.6155 
 415   0.0000       2.856993        77.7427 
 416   0.0000       2.866894        78.0121 
 417   0.0000       2.884743        78.4978 
 418   0.0000       2.889525        78.6280 
 419   0.0000       2.894969        78.7761 
 420   0.0000       2.902260        78.9745 
 421   0.0000       2.913228        79.2730 
 422   0.0000       2.922603        79.5281 
 423   0.0000       2.936375        79.9028 
 424   0.0000       2.937329        79.9288 
 425   0.0000       2.944437        80.1222 
 426   0.0000       2.963536        80.6419 
 427   0.0000       2.965112        80.6848 
 428   0.0000       2.967930        80.7615 
 429   0.0000       2.979525        81.0770 
 430   0.0000       2.988406        81.3187 
 431   0.0000       3.006413        81.8087 
 432   0.0000       3.021905        82.2302 
 433   0.0000       3.038811        82.6903 
 434   0.0000       3.044046        82.8327 
 435   0.0000       3.056399        83.1688 
 436   0.0000       3.059855        83.2629 
 437   0.0000       3.069380        83.5221 
 438   0.0000       3.076937        83.7277 
 439   0.0000       3.085932        83.9725 
 440   0.0000       3.100832        84.3779 
 441   0.0000       3.113995        84.7361 
 442   0.0000       3.117179        84.8228 
 443   0.0000       3.129999        85.1716 
 444   0.0000       3.137824        85.3845 
 445   0.0000       3.142895        85.5225 
 446   0.0000       3.152866        85.7938 
 447   0.0000       3.163448        86.0818 
 448   0.0000       3.166598        86.1675 
 449   0.0000       3.172152        86.3186 
 450   0.0000       3.180491        86.5456 
 451   0.0000       3.184874        86.6648 
 452   0.0000       3.196113        86.9707 
 453   0.0000       3.207831        87.2895 
 454   0.0000       3.208898        87.3186 
 455   0.0000       3.223036        87.7033 
 456   0.0000       3.229781        87.8868 
 457   0.0000       3.240342        88.1742 
 458   0.0000       3.249586        88.4257 
 459   0.0000       3.265099        88.8478 
 460   0.0000       3.273855        89.0861 
 461   0.0000       3.276146        89.1485 
 462   0.0000       3.285994        89.4164 
 463   0.0000       3.296751        89.7091 
 464   0.0000       3.305343        89.9430 
 465   0.0000       3.310023        90.0703 
 466   0.0000       3.335949        90.7758 
 467   0.0000       3.348164        91.1082 
 468   0.0000       3.370491        91.7157 
 469   0.0000       3.383484        92.0693 
 470   0.0000       3.397497        92.4506 
 471   0.0000       3.403537        92.6149 
 472   0.0000       3.419643        93.0532 
 473   0.0000       3.427441        93.2654 
 474   0.0000       3.435293        93.4791 
 475   0.0000       3.445596        93.7594 
 476   0.0000       3.454378        93.9984 
 477   0.0000       3.466256        94.3216 
 478   0.0000       3.475170        94.5642 
 479   0.0000       3.492649        95.0398 
 480   0.0000       3.497798        95.1799 
 481   0.0000       3.510495        95.5254 
 482   0.0000       3.517886        95.7265 
 483   0.0000       3.526226        95.9535 
 484   0.0000       3.544284        96.4449 
 485   0.0000       3.569497        97.1310 
 486   0.0000       3.582456        97.4836 
 487   0.0000       3.606931        98.1496 
 488   0.0000       3.633404        98.8699 
 489   0.0000       3.654299        99.4385 
 490   0.0000       3.660104        99.5965 
 491   0.0000       3.672004        99.9203 
 492   0.0000       3.675087       100.0042 
 493   0.0000       3.692345       100.4738 
 494   0.0000       3.705946       100.8439 
 495   0.0000       3.758459       102.2729 
 496   0.0000       3.761167       102.3466 
 497   0.0000       3.780932       102.8844 
 498   0.0000       3.791034       103.1593 
 499   0.0000       3.810047       103.6767 
 500   0.0000       3.816557       103.8538 
 501   0.0000       3.846492       104.6684 
 502   0.0000       3.872786       105.3839 
 503   0.0000       3.894348       105.9706 
 504   0.0000       3.904561       106.2485 
 505   0.0000       3.937567       107.1466 
 506   0.0000       3.951016       107.5126 
 507   0.0000       3.970341       108.0385 
 508   0.0000       3.987644       108.5093 
 509   0.0000       4.027452       109.5925 
 510   0.0000       4.040676       109.9524 
 511   0.0000       4.058741       110.4440 
 512   0.0000       4.129877       112.3797 
 513   0.0000       4.172469       113.5387 
 514   0.0000       4.221131       114.8628 
 515   0.0000       4.242596       115.4469 
 516   0.0000       4.270091       116.1951 
 517   0.0000       4.323237       117.6413 
 518   0.0000       4.353738       118.4712 
 519   0.0000       4.402767       119.8054 
 520   0.0000       4.446293       120.9898 
 521   0.0000       4.488047       122.1260 
 522   0.0000       4.594547       125.0240 
 523   0.0000       4.635964       126.1510 
 524   0.0000       4.791730       130.3896 
 525   0.0000       4.868004       132.4651 
 526   0.0000       4.921278       133.9148 
 527   0.0000       4.977715       135.4505 
 528   0.0000       5.009920       136.3269 
 529   0.0000       5.139382       139.8497 
 530   0.0000       5.246671       142.7692 
 531   0.0000       5.357686       145.7900 
 532   0.0000       5.467147       148.7686 
 533   0.0000       5.620648       152.9456 
 534   0.0000       6.321521       172.0173 
 535   0.0000       6.448355       175.4687 
 536   0.0000       6.518748       177.3842 
 537   0.0000       6.555887       178.3947 
 538   0.0000       6.620214       180.1452 
 539   0.0000       6.722565       182.9303 
 540   0.0000       6.760318       183.9576 
 541   0.0000       6.841533       186.1676 
 542   0.0000       6.939084       188.8221 
 543   0.0000       7.076982       192.5745 
 544   0.0000      21.574320       587.0671 
 545   0.0000      21.907291       596.1277 
 546   0.0000      22.017565       599.1284 
 547   0.0000      22.036163       599.6345 
 548   0.0000      22.196144       603.9878 
 549   0.0000      22.217486       604.5685 
 550   0.0000      22.245941       605.3428 
 551   0.0000      22.307023       607.0049 
 552   0.0000      22.379670       608.9818 
 553   0.0000      22.422657       610.1515 
 554   0.0000      22.433801       610.4548 
 555   0.0000      22.488027       611.9303 
 556   0.0000      22.568363       614.1164 
 557   0.0000      22.682337       617.2178 
 558   0.0000      22.928702       623.9217 
 559   0.0000      23.433598       637.6606 
 560   0.0000      32.452687       883.0825 
 561   0.0000      32.486693       884.0079 
 562   0.0000      43.872533      1193.8323 
 563   0.0000      44.092748      1199.8247 

                    ********************************
                    * MULLIKEN POPULATION ANALYSIS *
                    ********************************

-----------------------
MULLIKEN ATOMIC CHARGES
-----------------------
   0 C :   -0.157664
   1 C :   -0.112993
   2 C :   -0.186594
   3 C :    0.130570
   4 C :    0.171806
   5 O :   -0.471944
   6 C :    0.235527
   7 C :   -0.243950
   8 C :   -0.259429
   9 C :    0.148273
  10 C :    0.342782
  11 N :   -0.519153
  12 C :    0.064869
  13 C :   -0.044490
  14 C :   -0.208568
  15 C :    0.748355
  16 O :   -0.641814
  17 N :   -0.233346
  18 C :   -0.264962
  19 C :   -0.248263
  20 H :    0.144077
  21 H :    0.138111
  22 H :    0.133107
  23 H :    0.149759
  24 H :    0.135959
  25 H :    0.138593
  26 H :    0.111044
  27 H :    0.112680
  28 H :    0.112457
  29 H :    0.108111
  30 H :    0.104653
  31 H :    0.117573
  32 H :    0.121775
  33 H :    0.123090
Sum of atomic charges:    0.0000000

--------------------------------
MULLIKEN REDUCED ORBITAL CHARGES
--------------------------------
  0 C s       :     3.218873  s :     3.218873
      pz      :     0.974115  p :     2.860218
      px      :     0.904158
      py      :     0.981945
      dz2     :     0.018452  d :     0.078573
      dxz     :     0.015529
      dyz     :     0.013962
      dx2y2   :     0.015989
      dxy     :     0.014641
  1 C s       :     3.203611  s :     3.203611
      pz      :     0.942908  p :     2.822470
      px      :     0.938802
      py      :     0.940760
      dz2     :     0.016662  d :     0.086912
      dxz     :     0.022363
      dyz     :     0.009432
      dx2y2   :     0.017274
      dxy     :     0.021182
  2 C s       :     3.216006  s :     3.216006
      pz      :     0.959867  p :     2.883235
      px      :     0.958933
      py      :     0.964435
      dz2     :     0.011066  d :     0.087353
      dxz     :     0.025743
      dyz     :     0.007261
      dx2y2   :     0.017721
      dxy     :     0.025562
  3 C s       :     3.133420  s :     3.133420
      pz      :     0.751634  p :     2.541932
      px      :     0.833445
      py      :     0.956853
      dz2     :     0.042113  d :     0.194078
      dxz     :     0.044896
      dyz     :     0.019593
      dx2y2   :     0.051402
      dxy     :     0.036074
  4 C s       :     3.417548  s :     3.417548
      pz      :     0.901263  p :     2.275325
      px      :     0.622151
      py      :     0.751912
      dz2     :     0.024319  d :     0.135320
      dxz     :     0.031494
      dyz     :     0.015631
      dx2y2   :     0.027507
      dxy     :     0.036369
  5 O s       :     3.835502  s :     3.835502
      pz      :     1.570643  p :     4.592070
      px      :     1.686046
      py      :     1.335382
      dz2     :     0.009990  d :     0.044371
      dxz     :     0.006775
      dyz     :     0.010573
      dx2y2   :     0.010034
      dxy     :     0.006999
  6 C s       :     3.032481  s :     3.032481
      pz      :     0.872427  p :     2.579446
      px      :     0.842093
      py      :     0.864926
      dz2     :     0.029760  d :     0.152546
      dxz     :     0.035410
      dyz     :     0.019358
      dx2y2   :     0.033445
      dxy     :     0.034572
  7 C s       :     3.272910  s :     3.272910
      pz      :     0.951590  p :     2.883890
      px      :     0.981741
      py      :     0.950559
      dz2     :     0.012929  d :     0.087150
      dxz     :     0.020340
      dyz     :     0.009791
      dx2y2   :     0.024140
      dxy     :     0.019950
  8 C s       :     3.297874  s :     3.297874
      pz      :     0.974277  p :     2.873222
      px      :     0.921443
      py      :     0.977502
      dz2     :     0.023662  d :     0.088334
      dxz     :     0.013142
      dyz     :     0.015902
      dx2y2   :     0.022801
      dxy     :     0.012827
  9 C s       :     3.079174  s :     3.079174
      pz      :     0.867737  p :     2.603789
      px      :     0.914059
      py      :     0.821993
      dz2     :     0.032434  d :     0.168764
      dxz     :     0.044723
      dyz     :     0.012562
      dx2y2   :     0.038660
      dxy     :     0.040385
 10 C s       :     3.015290  s :     3.015290
      pz      :     0.821127  p :     2.498319
      px      :     0.834708
      py      :     0.842485
      dz2     :     0.030658  d :     0.143608
      dxz     :     0.030020
      dyz     :     0.019733
      dx2y2   :     0.035458
      dxy     :     0.027739
 11 N s       :     3.661310  s :     3.661310
      pz      :     1.141773  p :     3.780095
      px      :     1.517279
      py      :     1.121043
      dz2     :     0.015425  d :     0.077749
      dxz     :     0.018104
      dyz     :     0.011748
      dx2y2   :     0.014074
      dxy     :     0.018398
 12 C s       :     3.139111  s :     3.139111
      pz      :     0.914799  p :     2.685964
      px      :     0.868284
      py      :     0.902882
      dz2     :     0.017250  d :     0.110056
      dxz     :     0.025006
      dyz     :     0.009961
      dx2y2   :     0.032537
      dxy     :     0.025303
 13 C s       :     3.125065  s :     3.125065
      pz      :     0.958282  p :     2.839241
      px      :     0.925333
      py      :     0.955625
      dz2     :     0.014120  d :     0.080185
      dxz     :     0.020462
      dyz     :     0.009715
      dx2y2   :     0.016691
      dxy     :     0.019197
 14 C s       :     3.233990  s :     3.233990
      pz      :     0.950606  p :     2.887906
      px      :     0.993388
      py      :     0.943911
      dz2     :     0.020819  d :     0.086673
      dxz     :     0.018009
      dyz     :     0.013889
      dx2y2   :     0.017478
      dxy     :     0.016478
 15 C s       :     2.793209  s :     2.793209
      pz      :     0.716227  p :     2.166918
      px      :     0.791618
      py      :     0.659073
      dz2     :     0.071531  d :     0.291518
      dxz     :     0.062616
      dyz     :     0.079611
      dx2y2   :     0.038843
      dxy     :     0.038917
 16 O s       :     3.876809  s :     3.876809
      pz      :     1.459059  p :     4.732188
      px      :     1.576861
      py      :     1.696268
      dz2     :     0.010823  d :     0.032817
      dxz     :     0.008792
      dyz     :     0.008861
      dx2y2   :     0.001752
      dxy     :     0.002589
 17 N s       :     3.440626  s :     3.440626
      pz      :     1.129122  p :     3.702503
      px      :     1.470690
      py      :     1.102691
      dz2     :     0.021680  d :     0.090217
      dxz     :     0.014244
      dyz     :     0.027314
      dx2y2   :     0.013638
      dxy     :     0.013340
 18 C s       :     3.250261  s :     3.250261
      pz      :     0.839321  p :     2.947556
      px      :     1.081256
      py      :     1.026979
      dz2     :     0.018579  d :     0.067145
      dxz     :     0.016313
      dyz     :     0.013794
      dx2y2   :     0.007469
      dxy     :     0.010990
 19 C s       :     3.241976  s :     3.241976
      pz      :     1.100874  p :     2.940567
      px      :     1.048512
      py      :     0.791181
      dz2     :     0.008551  d :     0.065720
      dxz     :     0.003981
      dyz     :     0.014474
      dx2y2   :     0.020515
      dxy     :     0.018200
 20 H s       :     0.831315  s :     0.831315
      pz      :     0.013699  p :     0.024609
      px      :     0.005358
      py      :     0.005551
 21 H s       :     0.838995  s :     0.838995
      pz      :     0.010291  p :     0.022894
      px      :     0.005592
      py      :     0.007012
 22 H s       :     0.844133  s :     0.844133
      pz      :     0.004424  p :     0.022760
      px      :     0.015259
      py      :     0.003077
 23 H s       :     0.825979  s :     0.825979
      pz      :     0.003923  p :     0.024262
      px      :     0.008074
      py      :     0.012265
 24 H s       :     0.841211  s :     0.841211
      pz      :     0.003284  p :     0.022830
      px      :     0.014457
      py      :     0.005089
 25 H s       :     0.838325  s :     0.838325
      pz      :     0.010502  p :     0.023082
      px      :     0.004742
      py      :     0.007838
 26 H s       :     0.862694  s :     0.862694
      pz      :     0.011222  p :     0.026263
      px      :     0.005355
      py      :     0.009686
 27 H s       :     0.861044  s :     0.861044
[...]
     74       0.000001   0.000012  -0.000010   0.000033   0.000023   0.000024
     75       0.000120   0.000266  -0.000051   0.000130   0.000067   0.000067
     76       0.000335   0.000760  -0.000159   0.000427   0.000211   0.000256
     77       0.000402   0.000908  -0.000198   0.000509   0.000262   0.000317
     78      -0.103649  -0.287696   0.007875   0.189736  -0.011786   0.094633
     79       0.166142   0.463863  -0.008737  -0.303501   0.018246  -0.147543
     80       0.190348   0.531139  -0.010427  -0.347661   0.020963  -0.169403
     81       0.044214   0.158248   0.170000   0.619068   0.101626  -0.712524
     82      -0.001526  -0.005490  -0.005783  -0.021833  -0.004027   0.028152
     83      -0.008403  -0.030102  -0.032236  -0.118212  -0.019892   0.139385
     84      -0.095927  -0.302857  -0.156039  -0.331687   0.052817  -0.386991
     85      -0.089028  -0.280969  -0.143553  -0.301641   0.048933  -0.358220
     86      -0.081110  -0.255962  -0.130604  -0.273893   0.044556  -0.326128
     87       0.060281  -0.019343  -0.219653   0.069988   0.001702   0.011335
     88      -0.125114   0.035131   0.458888  -0.143724  -0.004421  -0.022718
     89      -0.140869   0.039817   0.516518  -0.161900  -0.004928  -0.025617
     90      -0.027892   0.241437  -0.592211   0.129963   0.030079   0.016877
     91       0.003624  -0.017582   0.040037  -0.008429  -0.002550  -0.001005
     92       0.007099  -0.046904   0.111729  -0.024129  -0.006219  -0.003041
     93      -0.020424   0.006938  -0.001016   0.000224  -0.050388  -0.007403
     94       0.034026  -0.011529   0.001335  -0.000201   0.076711   0.011411
     95       0.037260  -0.012633   0.001482  -0.000236   0.084454   0.012558
     96       0.171590  -0.058247   0.034214  -0.009676   0.582989   0.079997
     97       0.154810  -0.052518   0.030867  -0.008786   0.536036   0.073576
     98       0.142247  -0.048252   0.028363  -0.008076   0.493643   0.067757
     99      -0.860430   0.272376  -0.078551   0.010815   0.285385   0.041992
    100       0.072946  -0.022717   0.005689  -0.000708  -0.026456  -0.003825
    101       0.173176  -0.054432   0.014797  -0.001960  -0.059826  -0.008732


-----------
IR SPECTRUM
-----------

 Mode   freq       eps      Int      T**2         TX        TY        TZ
       cm**-1   L/(mol*cm) km/mol    a.u.
----------------------------------------------------------------------------
  6:     34.36   0.000381    1.92  0.003456  ( 0.021580 -0.050061  0.022016)
  7:     37.88   0.001235    6.24  0.010171  ( 0.082965  0.015194  0.055290)
  8:     48.81   0.000339    1.71  0.002169  ( 0.029275  0.035599  0.006666)
  9:     62.12   0.000002    0.01  0.000010  (-0.001775 -0.000394  0.002662)
 10:     92.15   0.000416    2.10  0.001410  (-0.031154  0.003406 -0.020677)
 11:     99.70   0.001840    9.30  0.005760  (-0.001102  0.060812 -0.045400)
 12:    112.82   0.000646    3.27  0.001787  (-0.025207  0.033207 -0.007022)
 13:    127.37   0.000638    3.23  0.001564  (-0.034763 -0.016551 -0.009011)
 14:    204.02   0.000117    0.59  0.000180  (-0.011616  0.001696  0.006465)
 15:    217.04   0.000567    2.87  0.000816  (-0.024757 -0.011035 -0.009006)
 16:    228.88   0.000282    1.42  0.000384  (-0.012859  0.000224 -0.014788)
 17:    233.06   0.001306    6.60  0.001749  (-0.002675 -0.028979  0.030040)
 18:    241.18   0.000987    4.99  0.001277  ( 0.004724 -0.016500 -0.031348)
 19:    297.06   0.000102    0.51  0.000107  (-0.001588 -0.005715  0.008459)
 20:    365.77   0.003442   17.39  0.002937  (-0.022226  0.043934  0.022637)
 21:    380.11   0.001113    5.63  0.000914  ( 0.014639 -0.025958 -0.005069)
 22:    410.69   0.000898    4.54  0.000683  ( 0.013615 -0.010604 -0.019618)
 23:    422.24   0.000030    0.15  0.000023  ( 0.001943 -0.004110 -0.001360)
 24:    465.92   0.001871    9.46  0.001253  (-0.013405  0.025247 -0.020887)
 25:    491.04   0.000178    0.90  0.000113  ( 0.004613 -0.004565 -0.008433)
 26:    510.84   0.000044    0.22  0.000027  (-0.003942 -0.001372  0.003124)
 27:    522.44   0.001074    5.43  0.000641  ( 0.000915  0.024974 -0.004090)
 28:    525.77   0.000976    4.93  0.000579  (-0.023606 -0.001702 -0.004350)
 29:    562.77   0.001196    6.05  0.000663  ( 0.013830  0.012825  0.017539)
 30:    584.64   0.000326    1.65  0.000174  (-0.009427  0.000431  0.009205)
 31:    606.38   0.001822    9.21  0.000938  (-0.025115 -0.000149  0.017516)
 32:    625.03   0.002250   11.37  0.001123  (-0.029293 -0.015346  0.005439)
 33:    661.05   0.001268    6.41  0.000599  ( 0.015354  0.005033  0.018371)
 34:    703.26   0.000655    3.31  0.000291  (-0.014676  0.002885  0.008175)
 35:    732.19   0.000674    3.41  0.000287  (-0.008274  0.003613 -0.014348)
 36:    743.34   0.012620   63.78  0.005298  (-0.044003 -0.057888  0.003279)
 37:    746.34   0.017278   87.31  0.007224  ( 0.032967 -0.050080  0.060244)
 38:    776.48   0.004362   22.04  0.001753  ( 0.006657 -0.019547  0.036422)
 39:    804.48   0.000312    1.57  0.000121  ( 0.001433  0.010444 -0.003118)
 40:    828.11   0.002377   12.01  0.000896  ( 0.024332 -0.002467  0.017254)
 41:    837.82   0.005276   26.66  0.001965  (-0.024320  0.001003  0.037049)
 42:    864.32   0.014685   74.21  0.005302  ( 0.011050 -0.055321  0.046039)
 43:    871.31   0.000596    3.01  0.000213  ( 0.010137  0.007967  0.006867)
 44:    883.82   0.007612   38.47  0.002688  ( 0.012448 -0.045226  0.022078)
 45:    926.87   0.000568    2.87  0.000191  (-0.007656  0.009417  0.006632)
 46:    970.99   0.000062    0.32  0.000020  ( 0.000091  0.003026 -0.003304)
 47:    976.54   0.000207    1.04  0.000066  ( 0.001400 -0.005998  0.005298)
 48:    984.08   0.000043    0.22  0.000014  ( 0.000260  0.002056 -0.003074)
 49:    991.34   0.005613   28.36  0.001767  (-0.023092 -0.003741  0.034922)
 50:   1004.27   0.000293    1.48  0.000091  ( 0.000920 -0.007039  0.006382)
 51:   1032.01   0.011306   57.14  0.003419  ( 0.047203 -0.034504 -0.000458)
 52:   1046.56   0.005433   27.46  0.001620  ( 0.013327 -0.037940 -0.001752)
 53:   1075.57   0.003648   18.44  0.001058  (-0.003155  0.029588 -0.013154)
 54:   1083.81   0.001585    8.01  0.000456  ( 0.006323 -0.017411 -0.010642)
 55:   1109.96   0.000616    3.11  0.000173  (-0.013134 -0.000060 -0.000798)
 56:   1125.58   0.000559    2.83  0.000155  ( 0.002875  0.006812 -0.010021)
 57:   1148.07   0.006308   31.88  0.001715  (-0.008014 -0.035488 -0.019776)
 58:   1161.30   0.132301  668.59  0.035552  (-0.089479  0.135379  0.096008)
 59:   1172.71   0.000688    3.48  0.000183  ( 0.010949 -0.007175  0.003419)
 60:   1178.35   0.060849  307.51  0.016115  (-0.064680  0.098080  0.048080)
 61:   1187.50   0.004372   22.10  0.001149  ( 0.017593 -0.028019 -0.007380)
 62:   1218.07   0.006394   32.31  0.001638  ( 0.013781 -0.032523 -0.019761)
 63:   1224.20   0.007496   37.88  0.001911  ( 0.022623 -0.033215 -0.017199)
 64:   1255.35   0.030480  154.03  0.007577  (-0.051376  0.064888  0.026960)
 65:   1271.19   0.002973   15.02  0.000730  (-0.003971  0.026487  0.003529)
 66:   1277.92   0.001795    9.07  0.000438  (-0.013350 -0.002714  0.015900)
 67:   1322.81   0.002169   10.96  0.000512  ( 0.016764 -0.012550 -0.008554)
 68:   1341.28   0.006449   32.59  0.001501  ( 0.022125 -0.024894 -0.019782)
 69:   1354.09   0.002352   11.88  0.000542  (-0.015204  0.013352  0.011514)
 70:   1409.26   0.042666  215.62  0.009448  (-0.022121  0.077293  0.054630)
 71:   1414.76   0.023692  119.73  0.005226  (-0.055908  0.040940  0.020593)
 72:   1437.77   0.002659   13.44  0.000577  (-0.006679 -0.007759  0.021735)
 73:   1452.18   0.005137   25.96  0.001104  ( 0.001119  0.029993  0.014250)
 74:   1456.75   0.005329   26.93  0.001142  (-0.000064  0.028009  0.018896)
 75:   1462.77   0.007254   36.66  0.001547  (-0.009388  0.029575 -0.024180)
 76:   1476.11   0.004190   21.18  0.000886  ( 0.026474 -0.000220 -0.013601)
 77:   1479.41   0.000579    2.93  0.000122  ( 0.006813  0.001568  0.008565)
 78:   1486.81   0.006756   34.14  0.001418  (-0.026750 -0.004953 -0.026037)
 79:   1491.79   0.002653   13.41  0.000555  (-0.000769  0.021782 -0.008944)
 80:   1522.94   0.016951   85.66  0.003473  ( 0.023757 -0.053854 -0.002945)
 81:   1532.06   0.002550   12.89  0.000519  (-0.003650 -0.020271 -0.009760)
 82:   1545.29   0.007363   37.21  0.001487  (-0.023709  0.024664  0.017792)
 83:   1598.04   0.007667   38.75  0.001497  ( 0.037785 -0.004272 -0.007158)
 84:   1630.77   0.011101   56.10  0.002124  (-0.009048 -0.032356 -0.031551)
 85:   1644.57   0.001066    5.39  0.000202  (-0.007320 -0.007336 -0.009740)
 86:   1659.76   0.003692   18.66  0.000694  ( 0.025390  0.007043  0.000040)
 87:   1705.52   0.189140  955.84  0.034607  ( 0.054524  0.017782 -0.176970)
 88:   3022.34   0.007661   38.72  0.000791  ( 0.004356  0.023631 -0.014617)
 89:   3026.23   0.021958  110.97  0.002264  (-0.038461  0.014465  0.023997)
 90:   3079.35   0.009134   46.16  0.000926  ( 0.020034  0.015813  0.016561)
 91:   3088.64   0.004999   25.26  0.000505  (-0.011470 -0.010559 -0.016188)
 92:   3149.37   0.006612   33.41  0.000655  ( 0.003001 -0.017276 -0.018647)
 93:   3169.66   0.000934    4.72  0.000092  ( 0.001502  0.005841 -0.007457)
 94:   3173.12   0.000028    0.14  0.000003  (-0.001412  0.000464  0.000740)
 95:   3174.04   0.001625    8.21  0.000160  ( 0.007895 -0.009838  0.000825)
 96:   3178.73   0.001482    7.49  0.000146  ( 0.011204 -0.002392 -0.003777)
 97:   3179.90   0.000042    0.21  0.000004  (-0.001517 -0.000807 -0.001068)
 98:   3189.27   0.003042   15.37  0.000298  ( 0.014908 -0.005059 -0.007059)
 99:   3192.44   0.004624   23.37  0.000452  (-0.004298  0.014302  0.015131)
100:   3203.14   0.003749   18.95  0.000365  (-0.012399 -0.010660 -0.009893)
101:   3203.56   0.001128    5.70  0.000110  ( 0.008339  0.004956  0.003975)

* The epsilon (eps) is given for a Dirac delta lineshape.
** The dipole moment derivative (T) already includes vibrational overlap.

The first frequency considered to be a vibration is 6
The total number of vibrations considered is 96


--------------------------
THERMOCHEMISTRY AT 298.15K
--------------------------

Temperature         ... 298.15 K
Pressure            ... 1.00 atm
Total Mass          ... 266.30 AMU

Throughout the following assumptions are being made:
  (1) The electronic state is orbitally nondegenerate
  (2) There are no thermally accessible electronically excited states
  (3) Hindered rotations indicated by low frequency modes are not
      treated as such but are treated as vibrations and this may
      cause some error
  (4) All equations used are the standard statistical mechanics
      equations for an ideal gas
  (5) All vibrations are strictly harmonic

freq.      34.36  E(vib)   ...       0.54 
freq.      37.88  E(vib)   ...       0.54 
freq.      48.81  E(vib)   ...       0.53 
freq.      62.12  E(vib)   ...       0.51 
freq.      92.15  E(vib)   ...       0.47 
freq.      99.70  E(vib)   ...       0.46 
freq.     112.82  E(vib)   ...       0.45 
freq.     127.37  E(vib)   ...       0.43 
freq.     204.02  E(vib)   ...       0.35 
freq.     217.04  E(vib)   ...       0.34 
freq.     228.88  E(vib)   ...       0.32 
freq.     233.06  E(vib)   ...       0.32 
freq.     241.18  E(vib)   ...       0.31 
freq.     297.06  E(vib)   ...       0.27 
freq.     365.77  E(vib)   ...       0.22 
freq.     380.11  E(vib)   ...       0.21 
freq.     410.69  E(vib)   ...       0.19 
freq.     422.24  E(vib)   ...       0.18 
freq.     465.92  E(vib)   ...       0.16 
freq.     491.04  E(vib)   ...       0.14 
freq.     510.84  E(vib)   ...       0.14 
freq.     522.44  E(vib)   ...       0.13 
freq.     525.77  E(vib)   ...       0.13 
freq.     562.77  E(vib)   ...       0.11 
freq.     584.64  E(vib)   ...       0.11 
freq.     606.38  E(vib)   ...       0.10 
freq.     625.03  E(vib)   ...       0.09 
freq.     661.05  E(vib)   ...       0.08 
freq.     703.26  E(vib)   ...       0.07 
freq.     732.19  E(vib)   ...       0.06 
freq.     743.34  E(vib)   ...       0.06 
freq.     746.34  E(vib)   ...       0.06 
freq.     776.48  E(vib)   ...       0.05 
freq.     804.48  E(vib)   ...       0.05 
freq.     828.11  E(vib)   ...       0.04 
freq.     837.82  E(vib)   ...       0.04 
freq.     864.32  E(vib)   ...       0.04 
freq.     871.31  E(vib)   ...       0.04 
freq.     883.82  E(vib)   ...       0.04 
freq.     926.87  E(vib)   ...       0.03 
freq.     970.99  E(vib)   ...       0.03 
freq.     976.54  E(vib)   ...       0.03 
freq.     984.08  E(vib)   ...       0.02 
freq.     991.34  E(vib)   ...       0.02 
freq.    1004.27  E(vib)   ...       0.02 
freq.    1032.01  E(vib)   ...       0.02 
freq.    1046.56  E(vib)   ...       0.02 
freq.    1075.57  E(vib)   ...       0.02 
freq.    1083.81  E(vib)   ...       0.02 
freq.    1109.96  E(vib)   ...       0.02 
freq.    1125.58  E(vib)   ...       0.01 
freq.    1148.07  E(vib)   ...       0.01 
freq.    1161.30  E(vib)   ...       0.01 
freq.    1172.71  E(vib)   ...       0.01 
freq.    1178.35  E(vib)   ...       0.01 
freq.    1187.50  E(vib)   ...       0.01 
freq.    1218.07  E(vib)   ...       0.01 
freq.    1224.20  E(vib)   ...       0.01 
freq.    1255.35  E(vib)   ...       0.01 
freq.    1271.19  E(vib)   ...       0.01 
freq.    1277.92  E(vib)   ...       0.01 
freq.    1322.81  E(vib)   ...       0.01 
freq.    1341.28  E(vib)   ...       0.01 
freq.    1354.09  E(vib)   ...       0.01 
freq.    1409.26  E(vib)   ...       0.00 
freq.    1414.76  E(vib)   ...       0.00 
freq.    1437.77  E(vib)   ...       0.00 
freq.    1452.18  E(vib)   ...       0.00 
freq.    1456.75  E(vib)   ...       0.00 
freq.    1462.77  E(vib)   ...       0.00 
freq.    1476.11  E(vib)   ...       0.00 
freq.    1479.41  E(vib)   ...       0.00 
freq.    1486.81  E(vib)   ...       0.00 
freq.    1491.79  E(vib)   ...       0.00 
freq.    1522.94  E(vib)   ...       0.00 
freq.    1532.06  E(vib)   ...       0.00 
freq.    1545.29  E(vib)   ...       0.00 
freq.    1598.04  E(vib)   ...       0.00 
freq.    1630.77  E(vib)   ...       0.00 
freq.    1644.57  E(vib)   ...       0.00 
freq.    1659.76  E(vib)   ...       0.00 
freq.    1705.52  E(vib)   ...       0.00 
freq.    3022.34  E(vib)   ...       0.00 
freq.    3026.23  E(vib)   ...       0.00 
freq.    3079.35  E(vib)   ...       0.00 
freq.    3088.64  E(vib)   ...       0.00 
freq.    3149.37  E(vib)   ...       0.00 
freq.    3169.66  E(vib)   ...       0.00 
freq.    3173.12  E(vib)   ...       0.00 
freq.    3174.04  E(vib)   ...       0.00 
freq.    3178.73  E(vib)   ...       0.00 
freq.    3179.90  E(vib)   ...       0.00 
freq.    3189.27  E(vib)   ...       0.00 
freq.    3192.44  E(vib)   ...       0.00 
freq.    3203.14  E(vib)   ...       0.00 
freq.    3203.56  E(vib)   ...       0.00 

------------
INNER ENERGY
------------

The inner energy is: U= E(el) + E(ZPE) + E(vib) + E(rot) + E(trans)
    E(el)   - is the total energy from the electronic structure calculation
              = E(kin-el) + E(nuc-el) + E(el-el) + E(nuc-nuc)
    E(ZPE)  - the the zero temperature vibrational energy from the frequency calculation
    E(vib)  - the the finite temperature correction to E(ZPE) due to population
              of excited vibrational states
    E(rot)  - is the rotational thermal energy
    E(trans)- is the translational thermal energy

Summary of contributions to the inner energy U:
Electronic energy                ...   -878.44036569 Eh
Zero point energy                ...      0.26845796 Eh     168.46 kcal/mol
Thermal vibrational correction   ...      0.01401927 Eh       8.80 kcal/mol
Thermal rotational correction    ...      0.00141627 Eh       0.89 kcal/mol
Thermal translational correction ...      0.00141627 Eh       0.89 kcal/mol
-----------------------------------------------------------------------
Total thermal energy                   -878.15505591 Eh


Summary of corrections to the electronic energy:
(perhaps to be used in another calculation)
Total thermal correction                  0.01685181 Eh      10.57 kcal/mol
Non-thermal (ZPE) correction              0.26845796 Eh     168.46 kcal/mol
-----------------------------------------------------------------------
Total correction                          0.28530977 Eh     179.03 kcal/mol


--------
ENTHALPY
--------

The enthalpy is H = U + kB*T
                kB is Boltzmann's constant
Total free energy                 ...   -878.15505591 Eh 
Thermal Enthalpy correction       ...      0.00094421 Eh       0.59 kcal/mol
-----------------------------------------------------------------------
Total Enthalpy                    ...   -878.15411170 Eh


Note: Only C1 symmetry has been detected, increase convergence thresholds 
      if your molecule has a higher symmetry. Symmetry factor of 1.0 is   
      used for the rotational entropy correction. 
 

Note: Rotational entropy computed according to Herzberg 
Infrared and Raman Spectra, Chapter V,1, Van Nostrand Reinhold, 1945 
Point Group:  C1, Symmetry Number:   1  
Rotational constants in cm-1:     0.016255     0.010868     0.007093 

Vibrational entropy computed according to the QRRHO of S. Grimme
Chem.Eur.J. 2012 18 9955


-------
ENTROPY
-------

The entropy contributions are T*S = T*(S(el)+S(vib)+S(rot)+S(trans))
     S(el)   - electronic entropy
     S(vib)  - vibrational entropy
     S(rot)  - rotational entropy
     S(trans)- translational entropy
The entropies will be listed as multiplied by the temperature to get
units of energy

Electronic entropy                ...      0.00000000 Eh      0.00 kcal/mol
Vibrational entropy               ...      0.02458889 Eh     15.43 kcal/mol
Rotational entropy                ...      0.01592647 Eh      9.99 kcal/mol
Translational entropy             ...      0.02025841 Eh     12.71 kcal/mol
-----------------------------------------------------------------------
Final entropy term                ...      0.06077378 Eh     38.14 kcal/mol

In case the symmetry of your molecule has not been determined correctly
or in case you have a reason to use a different symmetry number we print 
out the resulting rotational entropy values for sn=1,12 :
 --------------------------------------------------------
|  sn= 1 | S(rot)=       0.01592647 Eh      9.99 kcal/mol|
|  sn= 2 | S(rot)=       0.01527201 Eh      9.58 kcal/mol|
|  sn= 3 | S(rot)=       0.01488918 Eh      9.34 kcal/mol|
|  sn= 4 | S(rot)=       0.01461756 Eh      9.17 kcal/mol|
|  sn= 5 | S(rot)=       0.01440687 Eh      9.04 kcal/mol|
|  sn= 6 | S(rot)=       0.01423473 Eh      8.93 kcal/mol|
|  sn= 7 | S(rot)=       0.01408918 Eh      8.84 kcal/mol|
|  sn= 8 | S(rot)=       0.01396310 Eh      8.76 kcal/mol|
|  sn= 9 | S(rot)=       0.01385189 Eh      8.69 kcal/mol|
|  sn=10 | S(rot)=       0.01375241 Eh      8.63 kcal/mol|
|  sn=11 | S(rot)=       0.01366242 Eh      8.57 kcal/mol|
|  sn=12 | S(rot)=       0.01358027 Eh      8.52 kcal/mol|
 --------------------------------------------------------


-------------------
GIBBS FREE ENERGY
-------------------

The Gibbs free energy is G = H - T*S

Total enthalpy                    ...   -878.15411170 Eh 
Total entropy correction          ...     -0.06077378 Eh    -38.14 kcal/mol
-----------------------------------------------------------------------
Final Gibbs free energy         ...   -878.21488548 Eh

For completeness - the Gibbs free energy minus the electronic energy
G-E(el)                           ...      0.22548020 Eh    141.49 kcal/mol


Timings for individual modules:

Sum of individual times         ...     6088.542 sec (= 101.476 min)
GTO integral calculation        ...       12.459 sec (=   0.208 min)   0.2 %
SCF iterations                  ...      480.891 sec (=   8.015 min)   7.9 %
Analytical frequency calculation...     5595.193 sec (=  93.253 min)  91.9 %
                             ****ORCA TERMINATED NORMALLY****
TOTAL RUN TIME: 0 days 1 hours 41 minutes 35 seconds 400 msec
