
                                 *****************
                                 * O   R   C   A *
                                 *****************

                                            #,                                       
                                            ###                                      
                                            ####                                     
                                            #####                                    
                                            ######                                   
                                           ########,                                 
                                     ,,################,,,,,                         
                               ,,#################################,,                 
                          ,,##########################################,,             
                       ,#########################################, ''#####,          
                    ,#############################################,,   '####,        
                  ,##################################################,,,,####,       
                ,###########''''           ''''###############################       
              ,#####''   ,,,,##########,,,,          '''####'''          '####       
            ,##' ,,,,###########################,,,                        '##       
           ' ,,###''''                  '''############,,,                           
         ,,##''                                '''############,,,,        ,,,,,,###''
      ,#''                                            '''#######################'''  
     '                                                          ''''####''''         
             ,#######,   #######,   ,#######,      ##                                
            ,#'     '#,  ##    ##  ,#'     '#,    #''#        ,####,   ,####,        
            ##       ##  ##   ,#'  ##            #'  '#       #'       #'  '#        
            ##       ##  #######   ##           ,######,      #####,   #    #        
            '#,     ,#'  ##    ##  '#,     ,#' ,#      #,     #,   #   #,  ,#        
             '#######'   ##     ##  '#######'  #'      '#     '####' # '####'        



                #########################################################
                #                        -***-                          #
                #          Department of theory and spectroscopy        #
                #                                                       #
                #                      Frank Neese                      #
                #                                                       #
                #     Directorship, Architecture, Infrastructure        #
                #                    SHARK, DRIVERS                     #
                #        Core code/Algorithms in most modules           #
                #                                                       #
                #        Max Planck Institute fuer Kohlenforschung      #
                #                Kaiser Wilhelm Platz 1                 #
                #                 D-45470 Muelheim/Ruhr                 #
                #                      Germany                          #
                #                                                       #
                #                  All rights reserved                  #
                #                        -***-                          #
                #########################################################


                         Program Version 6.0.1  -  RELEASE   -


 With contributions from (in alphabetic order):
[Max-Planck-Institut fuer Kohlenforschung]                               
  Daniel Aravena         : Magnetic Suceptibility                        
  Michael Atanasov       : Ab Initio Ligand Field Theory (pilot matlab implementation)
  Alexander A. Auer      : GIAO ZORA, VPT2 properties, NMR spectrum      
  Ute Becker             : All parallelization in ORCA, NUMFREQ, NUMCALC 
  Giovanni Bistoni       : ED, misc. LED, open-shell LED, HFLD           
  Martin Brehm           : Molecular dynamics                            
  Dmytro Bykov           : pre 5.0 version of the SCF Hessian            
  Marcos Casanova-Páez   : Triplet and SCS-CIS(D). UHF-(DLPNO)-IP/EA/STEOM-CCSD. UHF-CVS-IP/STEOM-CCSD   
  Vijay G. Chilkuri      : MRCI spin determinant printing, contributions to CSF-ICE 
  Pauline Colinet        : FMM embedding                                 
  Dipayan Datta          : RHF DLPNO-CCSD density                        
  Achintya Kumar Dutta   : EOM-CC, STEOM-CC                              
  Nicolas Foglia         : Exact transition moments, OPA infrastructure, MCD improvements    
  Dmitry Ganyushin       : Spin-Orbit,Spin-Spin,Magnetic field MRCI      
  Miquel Garcia-Rates    : C-PCM and meta-GGA Hessian, CCSD/C-PCM, Gaussian charge scheme 
  Tiago L. C. Gouveia    : GS-ROHF, GS-ROCIS                             
  Yang Guo               : DLPNO-NEVPT2, F12-NEVPT2, CIM, IAO-localization        
  Andreas Hansen         : Spin unrestricted coupled pair/coupled cluster methods 
  Ingolf Harden          : AUTO-CI MPn and infrastructure                
  Benjamin Helmich-Paris : MC-RPA, TRAH-(SCF,CASSCF), AVAS, COSX integrals, SCF dyn. polar. 
  Lee Huntington         : MR-EOM, pCC                                   
  Robert Izsak           : Overlap fitted RIJCOSX, COSX-SCS-MP3, EOM     
  Riya Kayal             : Wick's Theorem for AUTO-CI, AUTO-CI UHF-CCSDT 
  Emily Kempfer          : AUTO-CI, RHF CISDT and CCSDT                  
  Christian Kollmar      : KDIIS, OOCD, Brueckner-CCSD(T), CCSD density, CASPT2, CASPT2-K, improved NEVPT2 
  Axel Koslowski         : Symmetry handling                             
  Simone Kossmann        : meta-GGA functionals, TD-DFT gradient, OOMP2, (MP2 Hessian; deprecated post 5.0) 
  Lucas Lang             : DCDCAS                                        
  Marvin Lechner         : AUTO-CI (C++ implementation), FIC-MRCC        
  Spencer Leger          : CASSCF response                               
  Dagmar Lenk            : GEPOL surface, SMD, ORCA-2-JSON               
  Dimitrios Liakos       : Extrapolation schemes; Compound Job, initial MDCI parallelization 
  Dimitrios Manganas     : Further ROCIS development; embedding schemes. LFT, Crystal Embedding 
  Dimitrios Pantazis     : SARC Basis sets                               
  Anastasios Papadopoulos: AUTO-CI, single reference methods and gradients 
  Taras Petrenko         : pre 6.0 DFT Hessian and TD-DFT gradient, (ASA, deprecated), ECA, 1-Electron XAS/XES, NRVS 
  Peter Pinski           : DLPNO-MP2, DLPNO-MP2 Gradient                 
  Christoph Reimann      : Effective Core Potentials                     
  Marius Retegan         : Local ZFS, SOC                                
  Christoph Riplinger    : Optimizer, TS searches, QM/MM, DLPNO-CCSD(T), (RO)-DLPNO pert. Triples 
  Michael Roemelt        : Original ROCIS implementation                 
  Masaaki Saitow         : Open-shell DLPNO-CCSD energy and density      
  Barbara Sandhoefer     : DKH picture change effects                    
  Kantharuban Sivalingam : CASSCF convergence/infrastructure, NEVPT2 and variants, FIC-MRCI 
  Bernardo de Souza      : ESD, SOC TD-DFT                               
  Georgi L. Stoychev     : AutoAux, RI-MP2 NMR, DLPNO-MP2 response, X2C  
  Van Anh Tran           : RI-MP2 g-tensors                              
  Willem Van den Heuvel  : Paramagnetic NMR                              
  Zikuan Wang            : NOTCH, Electric field optimization            
  Frank Wennmohs         : Technical directorship and infrastructure     
  Hang Xu                : AUTO-CI-Response properties                   
                                                                         
[FACCTs GmbH]                                                            
  Markus Bursch, Miquel Garcia-Rates, Christoph Riplinger, Bernardo de Souza, Georgi L. Stoychev 
                                                                 
  APM, Basis sets (HGBS, AHGBS, def-TZVP (Ac-Lr), def2-XVPD (La-Lu)), CI-OPT, improved COSX, DLPNO-Multilevel,           
  DOCKER, DRACO, updates on ESD, GOAT, IRC, LR-CPCM, MBIS, meta-GGA TD-DFT gradient, ML-optimized integration grids, 
  MM, NACMEs, nearIR, NEB, NEB-TS, NL-DFT gradient (VV10), 2- and 3-layer-ONIOM, interface openCOSMO-RS, QMMM,   
  Crystal-QMMM, SF, symmetry and pop. for TD-DFT, r2SCAN hybrids, SOLVATOR                                   
                                                                         
[Other institutions]                                                     
  V. Asgeirsson          : NEB                                           
  Christoph Bannwarth    : sTDA-DFT, sTD-DFT, PBEh-3c, B97-3c, D3        
  Sebastian Ehlert       : rSCAN, r2SCAN, r2SCAN-3c, D4, dhf basis sets  
  Marvin Friede          : D4 for Fr, Ra, Ac-Lr                          
  Lars Goerigk           : TD-DFT with DH, B97 family of functionals     
  Stefan Grimme          : VdW corrections, initial TS optimization, DFT functionals, gCP, sTDA/sTD-DF 
  Waldemar Hujo          : DFT-NL                                        
  H. Jonsson             : NEB                                           
  Holger Kruse           : gCP                                           
  Marcel Mueller         : wB97X-3c, vDZP basis set                      
  Hagen Neugebauer       : wr2SCAN                                       
  Tobias Risthaus        : range-separated hybrid DFT                    
  Lukas Wittmann         : regularized MP2, r2SCAN double-hybrids, wr2SCAN        
                                                                         
We gratefully acknowledge several colleagues who have allowed us to      
interface, adapt or use parts of their codes:                            
  Ed Valeev, F. Pavosevic, A. Kumar             : LibInt (2-el integral package), F12 methods 
  Garnet Chan, S. Sharma, J. Yang, R. Olivares  : DMRG                   
  Ulf Ekstrom                                   : XCFun DFT Library      
  Mihaly Kallay                                 : mrcc  (arbitrary order and MRCC methods)
  Frank Weinhold                                : gennbo (NPA and NBO analysis)           
  Simon Mueller                                 : openCOSMO-RS                            
  Christopher J. Cramer and Donald G. Truhlar   : smd solvation model                     
  S Lehtola, MJT Oliveira, MAL Marques          : LibXC Library                           
  Liviu Ungur et al                             : ANISO software                          


 Your calculation uses the libint2 library for the computation of 2-el integrals
 For citations please refer to: http://libint.valeyev.net

 Your ORCA version has been built with support for libXC version: 6.2.2
 For citations please refer to: https://libxc.gitlab.io

 This ORCA versions uses:
   CBLAS   interface :  Fast vector & matrix operations
   LAPACKE interface :  Fast linear algebra routines
   SCALAPACK package :  Parallel linear algebra routines
   Shared memory     :  Shared parallel matrices
   BLAS/LAPACK       :  OpenBLAS 0.3.27  USE64BITINT DYNAMIC_ARCH NO_AFFINITY Cooperlake SINGLE_THREADED
        Core in use  :  Cooperlake
   Copyright (c) 2011-2014, The OpenBLAS Project


================================================================================

----- Orbital basis set information -----
Your calculation utilizes the basis: def2-TZVP(-f)
   F. Weigend and R. Ahlrichs, Phys. Chem. Chem. Phys. 7, 3297 (2005).

----- AuxJ basis set information -----
Your calculation utilizes the auxiliary basis: def2/J
   F. Weigend, Phys. Chem. Chem. Phys. 8, 1057 (2006).

----- AuxC basis set information -----
Your calculation utilizes the auxiliary basis: def2-TZVP/C
  H-La, Hf-Rn : A. Hellweg, C. Hattig, S. Hofener and W. Klopper, Theor. Chem. Acc. 117, 587 (2007).
        Ce-Lu : J. Chmela and M. E. Harding, Mol. Phys. (2018).

================================================================================
                                        WARNINGS
                       Please study these warnings very carefully!
================================================================================


WARNING: Geometry Optimization
  ===> : Switching off AutoStart
         For restart on a previous wavefunction, please use MOREAD

================================================================================
                                       INPUT FILE
================================================================================
NAME = hbq-gs.inp
|  1> ! B3LYP/G VERYTIGHTOPT FREQ Def2-TZVP(-f) Def2-TZVP/C Def2/J RIJCOSX TightSCF CPCM(Water) AllPop SOSCF
|  2> 
|  3> * xyz 0 1 
|  4>   C          -3.35948158892705     -0.81444608522877     -0.33506793746229
|  5>   C          -2.89851569719394     -1.74141552714154     -1.27998027721631
|  6>   C          -1.56108177527527     -1.76604871187144     -1.60856918851113
|  7>   C          -2.48955845507269      0.07240424099622      0.26788844778801
|  8>   C          -1.10144731004095      0.08566989102249     -0.03876645344656
|  9>   O          -3.04515978394596      0.87971150108871      1.25435693519025
| 10>   C          -0.65125139198694     -0.87183221464472     -1.00256628906920
| 11>   C           0.73817144214643     -0.93760517040887     -1.35779285926328
| 12>   C           1.65378084294859     -0.11152106422619     -0.79439995354395
| 13>   C          -0.11550044679223      0.98070704693417      0.55778175566044
| 14>   C           1.25263520611744      0.86289006593645      0.17428200873787
| 15>   N          -0.50889776385719      1.90738523985773      1.46443574315835
| 16>   C           0.39713144956435      2.70839064495710      2.00303683127725
| 17>   C           1.76628982058414      2.66308449202771      1.69366671185405
| 18>   C           2.18891071820376      1.73292159042856      0.77041998460743
| 19>   C          -3.32082597065624      2.18928715321849      0.93338794894444
| 20>   O          -3.22086385139128      2.61653430713668     -0.20356793887396
| 21>   N          -3.73695413756670      2.88595951566779      2.01339476258630
| 22>   C          -3.87840594766566      2.31879126074967      3.35063272244724
| 23>   C          -4.22198973063247      4.24936137448296      1.83762655552298
| 24>   H          -5.29792309289751      4.30357497445621      2.03386771741187
| 25>   H          -4.02880221775699      4.57407270038374      0.81968688821786
| 26>   H          -3.70891952067628      4.91851156283328      2.53318422308184
| 27>   H          -3.29065665958963      1.41190220290038      3.44301721683508
| 28>   H          -4.92707843062979      2.09141319246891      3.57116737866262
| 29>   H          -3.52240180383059      3.04650316032263      4.08335869020071
| 30>   H          -1.18497024178843     -2.47900019308883     -2.33480164326312
| 31>   H          -4.40611385592532     -0.77914300658434     -0.05470644645420
| 32>   H          -3.59555754359298     -2.43051237495949     -1.74402910615141
| 33>   H           1.04085415880705     -1.67606340790074     -2.09317538356037
| 34>   H           2.70270575909045     -0.17287365200872     -1.06699551072059
| 35>   H           0.02634175350735      3.43481287752689      2.72239109562150
| 36>   H           2.45856329492960      3.34729534242911      2.17068163656332
| 37>   H           3.23512276708455      1.65711706296179      0.49053372748599
| 38> *
| 39> 
| 40>                          ****END OF INPUT****
================================================================================

                       *****************************
                       * Geometry Optimization Run *
                       *****************************

Geometry optimization settings:
Update method            Update   .... BFGS
Choice of coordinates    CoordSys .... (2022) Redundant Internals
Initial Hessian          InHess   .... Almloef's Model
Max. no of cycles        MaxIter  .... 102

Convergence Tolerances:
Energy Change            TolE     ....  2.0000e-07 Eh
Max. Gradient            TolMAXG  ....  3.0000e-05 Eh/bohr
RMS Gradient             TolRMSG  ....  8.0000e-06 Eh/bohr
Max. Displacement        TolMAXD  ....  2.0000e-04 bohr
RMS Displacement         TolRMSD  ....  1.0000e-04 bohr
Strict Convergence                .... False

------------------------------------------------------------------------------
                        ORCA OPTIMIZATION COORDINATE SETUP
------------------------------------------------------------------------------

The optimization will be done in redundant internal coordinates (2022)
Making redundant internal coordinates   ...  (2022 redundants) done
Evaluating the initial hessian          ...  (Almloef) done
Evaluating the coordinates              ...  done
Calculating the B-matrix                .... done
Calculating the G-matrix                .... done
Diagonalizing the G-matrix              .... done
Small eigenvalue found = 3.628e-03
Small eigenvalue found = 5.542e-03
Small eigenvalue found = 1.336e-02
Small eigenvalue found = 2.442e-02
The first mode is                       ....   77
The number of degrees of freedom        ....   96

    -----------------------------------------------------------------
                    Redundant Internal Coordinates


    -----------------------------------------------------------------
         Definition                    Initial Value    Approx d2E/dq
    -----------------------------------------------------------------
      1. B(C   1,C   0)                  1.4016         0.598622   
      2. B(C   2,C   1)                  1.3774         0.654330   
      3. B(C   3,C   0)                  1.3809         0.646087   
      4. B(C   4,C   3)                  1.4216         0.556232   
      5. B(O   5,C   3)                  1.3905         0.558520   
      6. B(C   6,C   4)                  1.4312         0.536996   
      7. B(C   6,C   2)                  1.4123         0.575605   
      8. B(C   7,C   6)                  1.4356         0.528388   
      9. B(C   8,C   7)                  1.3558         0.708464   
     10. B(C   9,C   4)                  1.4591         0.484675   
     11. B(C  10,C   9)                  1.4257         0.547911   
     12. B(C  10,C   8)                  1.4313         0.536760   
     13. B(N  11,C   9)                  1.3548         0.636819   
     14. B(C  12,N  11)                  1.3239         0.713521   
     15. B(C  13,C  12)                  1.4044         0.592590   
     16. B(C  14,C  13)                  1.3770         0.655300   
     17. B(C  14,C  10)                  1.4103         0.579897   
     18. B(C  15,O   5)                  1.3762         0.588639   
     19. B(O  16,C  15)                  1.2187         1.050007   
     20. B(N  17,C  15)                  1.3509         0.646037   
     21. B(C  18,N  17)                  1.4594         0.433638   
     22. B(C  19,N  17)                  1.4577         0.436308   
     23. B(H  20,C  19)                  1.0950         0.353512   
     24. B(H  21,C  19)                  1.0858         0.365700   
     25. B(H  22,C  19)                  1.0931         0.356061   
     26. B(H  23,C  18)                  1.0846         0.367268   
     27. B(H  24,C  18)                  1.0955         0.352939   
     28. B(H  25,C  18)                  1.0923         0.357027   
     29. B(H  26,C   2)                  1.0850         0.366808   
     30. B(H  27,C   0)                  1.0841         0.367981   
     31. B(H  28,C   1)                  1.0845         0.367498   
     32. B(H  29,C   7)                  1.0852         0.366465   
     33. B(H  30,C   8)                  1.0855         0.366099   
     34. B(H  31,C  12)                  1.0875         0.363429   
     35. B(H  32,C  13)                  1.0839         0.368204   
     36. B(H  33,C  14)                  1.0857         0.365897   
     37. A(C   1,C   0,C   3)          120.7916         0.434545   
     38. A(C   3,C   0,H  27)          118.3181         0.356691   
     39. A(C   1,C   0,H  27)          120.8894         0.352107   
     40. A(C   2,C   1,H  28)          120.7070         0.357380   
     41. A(C   0,C   1,C   2)          119.4702         0.435538   
     42. A(C   0,C   1,H  28)          119.8228         0.352029   
     43. A(C   1,C   2,H  26)          120.5318         0.357266   
     44. A(C   1,C   2,C   6)          120.7853         0.432476   
     45. A(C   6,C   2,H  26)          118.6817         0.349594   
     46. A(C   4,C   3,O   5)          122.5304         0.415122   
     47. A(C   0,C   3,C   4)          121.7979         0.428848   
     48. A(C   0,C   3,O   5)          115.5259         0.426365   
     49. A(C   3,C   4,C   9)          125.2614         0.407441   
     50. A(C   3,C   4,C   6)          116.4969         0.414916   
     51. A(C   6,C   4,C   9)          118.2386         0.404914   
     52. A(C   3,O   5,C  15)          117.8424         0.416611   
     53. A(C   4,C   6,C   7)          120.1131         0.411150   
     54. A(C   2,C   6,C   7)          119.2288         0.416252   
     55. A(C   2,C   6,C   4)          120.6569         0.417451   
     56. A(C   6,C   7,H  29)          117.9552         0.344541   
     57. A(C   6,C   7,C   8)          121.5245         0.432002   
     58. A(C   8,C   7,H  29)          120.5197         0.362078   
     59. A(C   7,C   8,H  30)          120.9163         0.362017   
     60. A(C  10,C   8,H  30)          118.6360         0.345393   
     61. A(C   7,C   8,C  10)          120.4477         0.433224   
     62. A(C   4,C   9,C  10)          119.1926         0.406356   
     63. A(C  10,C   9,N  11)          121.0085         0.423807   
     64. A(C   4,C   9,N  11)          119.7989         0.414642   
     65. A(C   9,C  10,C  14)          118.1889         0.419506   
     66. A(C   8,C  10,C  14)          121.3313         0.417971   
     67. A(C   8,C  10,C   9)          120.4793         0.413774   
     68. A(C   9,N  11,C  12)          119.1692         0.441506   
     69. A(N  11,C  12,H  31)          116.0997         0.359757   
     70. A(N  11,C  12,C  13)          123.9224         0.438687   
     71. A(C  13,C  12,H  31)          119.9777         0.350766   
     72. A(C  12,C  13,H  32)          120.3532         0.351541   
     73. A(C  12,C  13,C  14)          117.9493         0.434860   
     74. A(C  14,C  13,H  32)          121.6970         0.357587   
     75. A(C  10,C  14,H  33)          119.1905         0.349886   
     76. A(C  10,C  14,C  13)          119.7603         0.433169   
     77. A(C  13,C  14,H  33)          121.0492         0.357205   
     78. A(O  16,C  15,N  17)          126.1800         0.474972   
     79. A(O   5,C  15,N  17)          111.4679         0.427584   
     80. A(O   5,C  15,O  16)          122.3272         0.466928   
     81. A(C  18,N  17,C  19)          116.2129         0.378098   
     82. A(C  15,N  17,C  19)          119.2375         0.405396   
     83. A(C  15,N  17,C  18)          124.1929         0.404956   
     84. A(H  24,C  18,H  25)          108.3745         0.289534   
     85. A(H  23,C  18,H  25)          108.8616         0.291349   
     86. A(N  17,C  18,H  25)          108.9136         0.329925   
     87. A(H  23,C  18,H  24)          109.1501         0.290822   
     88. A(N  17,C  18,H  24)          110.9719         0.329297   
     89. A(N  17,C  18,H  23)          110.5157         0.331472   
     90. A(H  21,C  19,H  22)          109.2675         0.291029   
     91. A(H  20,C  19,H  22)          108.4728         0.289485   
     92. A(N  17,C  19,H  22)          109.8556         0.330112   
     93. A(H  20,C  19,H  21)          109.1489         0.290701   
     94. A(N  17,C  19,H  21)          109.4837         0.331574   
     95. A(N  17,C  19,H  20)          110.5867         0.329720   
     96. D(H  28,C   1,C   0,C   3)   -179.9828         0.024698   
     97. D(C   2,C   1,C   0,C   3)      0.0298         0.024698   
     98. D(H  28,C   1,C   0,H  27)      0.3794         0.024698   
     99. D(C   2,C   1,C   0,H  27)   -179.6081         0.024698   
    100. D(C   6,C   2,C   1,C   0)      0.1612         0.029839   
    101. D(H  26,C   2,C   1,C   0)    179.7554         0.029839   
    102. D(C   6,C   2,C   1,H  28)   -179.8261         0.029839   
    103. D(H  26,C   2,C   1,H  28)     -0.2320         0.029839   
    104. D(O   5,C   3,C   0,C   1)   -175.7198         0.029040   
    105. D(C   4,C   3,C   0,H  27)    179.6428         0.029040   
    106. D(C   4,C   3,C   0,C   1)     -0.0042         0.029040   
    107. D(O   5,C   3,C   0,H  27)      3.9272         0.029040   
    108. D(C   6,C   4,C   3,O   5)    175.2125         0.021182   
    109. D(C   9,C   4,C   3,C   0)   -179.5495         0.021182   
    110. D(C   9,C   4,C   3,O   5)     -4.1358         0.021182   
    111. D(C   6,C   4,C   3,C   0)     -0.2012         0.021182   
    112. D(C  15,O   5,C   3,C   4)     81.1453         0.022595   
    113. D(C  15,O   5,C   3,C   0)   -103.1737         0.022595   
    114. D(C   7,C   6,C   4,C   9)      0.1658         0.019697   
    115. D(C   7,C   6,C   4,C   3)   -179.2301         0.019697   
    116. D(C   2,C   6,C   4,C   9)    179.7835         0.019697   
    117. D(C   2,C   6,C   4,C   3)      0.3875         0.019697   
    118. D(C   7,C   6,C   2,H  26)     -0.3592         0.022747   
    119. D(C   7,C   6,C   2,C   1)    179.2423         0.022747   
    120. D(C   4,C   6,C   2,H  26)   -179.9802         0.022747   
    121. D(C   4,C   6,C   2,C   1)     -0.3786         0.022747   
    122. D(H  29,C   7,C   6,C   4)   -179.9326         0.019054   
    123. D(H  29,C   7,C   6,C   2)      0.4443         0.019054   
    124. D(C   8,C   7,C   6,C   4)      0.3376         0.019054   
    125. D(C   8,C   7,C   6,C   2)   -179.2854         0.019054   
    126. D(C  10,C   8,C   7,C   6)     -0.3461         0.035423   
    127. D(H  30,C   8,C   7,H  29)     -0.0054         0.035423   
    128. D(H  30,C   8,C   7,C   6)    179.7174         0.035423   
    129. D(C  10,C   8,C   7,H  29)    179.9310         0.035423   
    130. D(N  11,C   9,C   4,C   6)    179.3946         0.015994   
    131. D(N  11,C   9,C   4,C   3)     -1.2674         0.015994   
    132. D(C  10,C   9,C   4,C   6)     -0.6445         0.015994   
    133. D(C  10,C   9,C   4,C   3)    178.6934         0.015994   
    134. D(C  14,C  10,C   9,N  11)      0.3602         0.020532   
    135. D(C  14,C  10,C   9,C   4)   -179.6001         0.020532   
    136. D(C   8,C  10,C   9,N  11)   -179.3875         0.020532   
    137. D(C   8,C  10,C   9,C   4)      0.6522         0.020532   
    138. D(C  14,C  10,C   8,H  30)      0.0418         0.019679   
    139. D(C  14,C  10,C   8,C   7)   -179.8961         0.019679   
    140. D(C   9,C  10,C   8,H  30)    179.7814         0.019679   
    141. D(C   9,C  10,C   8,C   7)     -0.1565         0.019679   
    142. D(C  12,N  11,C   9,C  10)     -0.3098         0.029873   
    143. D(C  12,N  11,C   9,C   4)    179.6503         0.029873   
    144. D(H  31,C  12,N  11,C   9)    179.8423         0.038268   
    145. D(C  13,C  12,N  11,C   9)     -0.0174         0.038268   
    146. D(H  32,C  13,C  12,H  31)      0.1868         0.024177   
    147. D(H  32,C  13,C  12,N  11)   -179.9587         0.024177   
    148. D(C  14,C  13,C  12,H  31)   -179.5688         0.024177   
    149. D(C  14,C  13,C  12,N  11)      0.2857         0.024177   
    150. D(H  33,C  14,C  13,H  32)     -0.0362         0.029934   
    151. D(H  33,C  14,C  13,C  12)    179.7160         0.029934   
    152. D(C  10,C  14,C  13,H  32)   -179.9706         0.029934   
    153. D(C  10,C  14,C  13,C  12)     -0.2184         0.029934   
    154. D(H  33,C  14,C  10,C   9)    179.9792         0.023103   
    155. D(H  33,C  14,C  10,C   8)     -0.2754         0.023103   
    156. D(C  13,C  14,C  10,C   9)     -0.0852         0.023103   
    157. D(C  13,C  14,C  10,C   8)    179.6603         0.023103   
    158. D(O  16,C  15,O   5,C   3)      7.4788         0.025245   
    159. D(N  17,C  15,O   5,C   3)   -174.2334         0.025245   
    160. D(C  19,N  17,C  15,O  16)      5.2146         0.034025   
    161. D(C  19,N  17,C  15,O   5)   -172.9929         0.034025   
    162. D(C  18,N  17,C  15,O  16)    178.0871         0.034025   
    163. D(C  18,N  17,C  15,O   5)     -0.1204         0.034025   
    164. D(H  25,C  18,N  17,C  15)    139.7575         0.016032   
    165. D(H  24,C  18,N  17,C  19)     72.0480         0.016032   
    166. D(H  24,C  18,N  17,C  15)   -101.0206         0.016032   
    167. D(H  23,C  18,N  17,C  19)   -166.7179         0.016032   
    168. D(H  23,C  18,N  17,C  15)     20.2136         0.016032   
    169. D(H  22,C  19,N  17,C  15)   -128.7714         0.016231   
    170. D(H  21,C  19,N  17,C  18)    177.7913         0.016231   
    171. D(H  21,C  19,N  17,C  15)     -8.7774         0.016231   
    172. D(H  20,C  19,N  17,C  18)    -61.9055         0.016231   
    173. D(H  20,C  19,N  17,C  15)    111.5258         0.016231   
    -----------------------------------------------------------------

Number of atoms                         .... 34
Number of degrees of freedom            .... 173


         *************************************************************
         *                GEOMETRY OPTIMIZATION CYCLE   1            *
         *************************************************************
---------------------------------
CARTESIAN COORDINATES (ANGSTROEM)
---------------------------------
  C     -3.359482   -0.814446   -0.335068
  C     -2.898516   -1.741416   -1.279980
  C     -1.561082   -1.766049   -1.608569
  C     -2.489558    0.072404    0.267888
  C     -1.101447    0.085670   -0.038766
  O     -3.045160    0.879712    1.254357
  C     -0.651251   -0.871832   -1.002566
  C      0.738171   -0.937605   -1.357793
  C      1.653781   -0.111521   -0.794400
  C     -0.115500    0.980707    0.557782
  C      1.252635    0.862890    0.174282
  N     -0.508898    1.907385    1.464436
  C      0.397131    2.708391    2.003037
  C      1.766290    2.663084    1.693667
  C      2.188911    1.732922    0.770420
  C     -3.320826    2.189287    0.933388
  O     -3.220864    2.616534   -0.203568
  N     -3.736954    2.885960    2.013395
  C     -3.878406    2.318791    3.350633
  C     -4.221990    4.249361    1.837627
  H     -5.297923    4.303575    2.033868
  H     -4.028802    4.574073    0.819687
  H     -3.708920    4.918512    2.533184
  H     -3.290657    1.411902    3.443017
  H     -4.927078    2.091413    3.571167
  H     -3.522402    3.046503    4.083359
  H     -1.184970   -2.479000   -2.334802
  H     -4.406114   -0.779143   -0.054706
  H     -3.595558   -2.430512   -1.744029
  H      1.040854   -1.676063   -2.093175
  H      2.702706   -0.172874   -1.066996
  H      0.026342    3.434813    2.722391
  H      2.458563    3.347295    2.170682
  H      3.235123    1.657117    0.490534

----------------------------
CARTESIAN COORDINATES (A.U.)
----------------------------
  NO LB      ZA    FRAG     MASS         X           Y           Z
   0 C     6.0000    0    12.011   -6.348500   -1.539080   -0.633187
   1 C     6.0000    0    12.011   -5.477401   -3.290798   -2.418812
   2 C     6.0000    0    12.011   -2.950017   -3.337348   -3.039755
   3 C     6.0000    0    12.011   -4.704584    0.136824    0.506236
   4 C     6.0000    0    12.011   -2.081434    0.161893   -0.073258
   5 O     8.0000    0    15.999   -5.754518    1.662414    2.370391
   6 C     6.0000    0    12.011   -1.230687   -1.647524   -1.894576
   7 C     6.0000    0    12.011    1.394942   -1.771817   -2.565857
   8 C     6.0000    0    12.011    3.125193   -0.210744   -1.501198
   9 C     6.0000    0    12.011   -0.218264    1.853268    1.054055
  10 C     6.0000    0    12.011    2.367137    1.630626    0.329345
  11 N     7.0000    0    14.007   -0.961677    3.604436    2.767382
  12 C     6.0000    0    12.011    0.750470    5.118117    3.785191
  13 C     6.0000    0    12.011    3.337804    5.032500    3.200566
  14 C     6.0000    0    12.011    4.136442    3.274747    1.455883
  15 C     6.0000    0    12.011   -6.275452    4.137153    1.763848
  16 O     8.0000    0    15.999   -6.086551    4.944533   -0.384688
  17 N     7.0000    0    14.007   -7.061820    5.453673    3.804765
  18 C     6.0000    0    12.011   -7.329125    4.381880    6.331778
  19 C     6.0000    0    12.011   -7.978404    8.030129    3.472611
  20 H     1.0000    0     1.008  -10.011624    8.132578    3.843453
  21 H     1.0000    0     1.008   -7.613333    8.643745    1.548984
  22 H     1.0000    0     1.008   -7.008842    9.294640    4.787024
  23 H     1.0000    0     1.008   -6.218440    2.668108    6.506360
  24 H     1.0000    0     1.008   -9.310829    3.952198    6.748528
  25 H     1.0000    0     1.008   -6.656375    5.757057    7.716430
  26 H     1.0000    0     1.008   -2.239269   -4.684631   -4.412136
  27 H     1.0000    0     1.008   -8.326349   -1.472367   -0.103380
  28 H     1.0000    0     1.008   -6.794619   -4.593003   -3.295737
  29 H     1.0000    0     1.008    1.966929   -3.167301   -3.955528
  30 H     1.0000    0     1.008    5.107374   -0.326684   -2.016329
  31 H     1.0000    0     1.008    0.049779    6.490856    5.144574
  32 H     1.0000    0     1.008    4.646011    6.325471    4.101994
  33 H     1.0000    0     1.008    6.113496    3.131497    0.926974

--------------------------------
INTERNAL COORDINATES (ANGSTROEM)
--------------------------------
 C      0   0   0     0.000000000000     0.00000000     0.00000000
 C      1   0   0     1.401649467378     0.00000000     0.00000000
 C      2   1   0     1.377427661227   119.47018932     0.00000000
 C      1   2   3     1.380878764575   120.79159598     0.02978438
 C      4   1   2     1.421641922878   121.79794682     0.00000000
 O      4   1   2     1.390524334732   115.52591424   184.28021266
 C      3   2   1     1.412322195676   120.78529508     0.16123524
 C      7   3   2     1.435621053723   119.22884907   179.24231410
 C      8   7   3     1.355790209265   121.52454215   180.71456043
 C      5   4   1     1.459127305413   125.26142416   180.45052523
 C     10   5   4     1.425744739308   119.19264659   178.69343116
 N     10   5   4     1.354811933576   119.79885897   358.73258140
 C     12  10   5     1.323854118358   119.16917352   179.65029541
 C     13  12  10     1.404406338358   123.92242772     0.00000000
 C     14  13  12     1.377024315685   117.94934934     0.28566984
 C      6   4   1     1.376227206997   117.84235243   256.82626869
 O     16   6   4     1.218688330404   122.32717817     7.47876438
 N     16   6   4     1.350899607450   111.46787704   185.76661330
 C     18  16   6     1.459415569761   124.19286447   359.87957838
 C     18  16   6     1.457744359542   119.23750133   187.00708377
 H     20  18  16     1.095026167759   110.58674459   111.52578353
 H     20  18  16     1.085799257033   109.48368860   351.22257374
 H     20  18  16     1.093070667347   109.85563133   231.22862667
 H     19  18  16     1.084634447030   110.51568707    20.21357046
 H     19  18  16     1.095468072129   110.97187400   258.97940722
 H     19  18  16     1.092332780350   108.91359491   139.75753888
 H      3   2   1     1.084976164958   120.53179818   179.75537335
 H      1   2   3     1.084106994408   120.88937695   180.39190761
 H      2   1   3     1.084464437840   119.82280147   179.98745118
 H      8   7   3     1.085230322340   117.95524277     0.44429006
 H      9   8   7     1.085502628980   120.91628720   179.71743810
 H     13  12  10     1.087494743116   116.09970176   179.84229120
 H     14  13  12     1.083942013894   120.35315395   180.04134160
 H     15  14  13     1.085652934659   121.04915041   179.71602612

---------------------------
INTERNAL COORDINATES (A.U.)
---------------------------
 C      0   0   0     0.000000000000     0.00000000     0.00000000
 C      1   0   0     2.648733629101     0.00000000     0.00000000
 C      2   1   0     2.602961049008   119.47018932     0.00000000
 C      1   2   3     2.609482689194   120.79159598     0.02978438
 C      4   1   2     2.686513894740   121.79794682     0.00000000
 O      4   1   2     2.627710175196   115.52591424   184.28021266
 C      3   2   1     2.668902162686   120.78529508     0.16123524
 C      7   3   2     2.712930623628   119.22884907   179.24231410
 C      8   7   3     2.562072190563   121.52454215   180.71456043
 C      5   4   1     2.757351001757   125.26142416   180.45052523
 C     10   5   4     2.694267094171   119.19264659   178.69343116
 N     10   5   4     2.560223517427   119.79885897   358.73258140
 C     12  10   5     2.501721724961   119.16917352   179.65029541
 C     13  12  10     2.653943360239   123.92242772     0.00000000
 C     14  13  12     2.602198836395   117.94934934     0.28566984
 C      6   4   1     2.600692519275   117.84235243   256.82626869
 O     16   6   4     2.302987187070   122.32717817     7.47876438
 N     16   6   4     2.552830292503   111.46787704   185.76661330
 C     18  16   6     2.757895742429   124.19286447   359.87957838
 C     18  16   6     2.754737612802   119.23750133   187.00708377
 H     20  18  16     2.069299566541   110.58674459   111.52578353
 H     20  18  16     2.051863232207   109.48368860   351.22257374
 H     20  18  16     2.065604206308   109.85563133   231.22862667
 H     19  18  16     2.049662060304   110.51568707    20.21357046
 H     19  18  16     2.070134644778   110.97187400   258.97940722
 H     19  18  16     2.064209801967   108.91359491   139.75753888
 H      3   2   1     2.050307813603   120.53179818   179.75537335
 H      1   2   3     2.048665319299   120.88937695   180.39190761
 H      2   1   3     2.049340789495   119.82280147   179.98745118
 H      8   7   3     2.050788101450   117.95524277     0.44429006
 H      9   8   7     2.051302686424   120.91628720   179.71743810
 H     13  12  10     2.055067236567   116.09970176   179.84229120
 H     14  13  12     2.048353551311   120.35315395   180.04134160
 H     15  14  13     2.051586722993   121.04915041   179.71602612

---------------------
BASIS SET INFORMATION
---------------------
There are 4 groups of distinct atoms

 Group   1 Type C   : 11s6p2d contracted to 5s3p2d pattern {62111/411/11}
 Group   2 Type O   : 11s6p2d contracted to 5s3p2d pattern {62111/411/11}
 Group   3 Type N   : 11s6p2d contracted to 5s3p2d pattern {62111/411/11}
 Group   4 Type H   : 5s1p contracted to 3s1p pattern {311/1}

Atom   0C    basis set group =>   1
Atom   1C    basis set group =>   1
Atom   2C    basis set group =>   1
Atom   3C    basis set group =>   1
Atom   4C    basis set group =>   1
Atom   5O    basis set group =>   2
Atom   6C    basis set group =>   1
Atom   7C    basis set group =>   1
Atom   8C    basis set group =>   1
Atom   9C    basis set group =>   1
Atom  10C    basis set group =>   1
Atom  11N    basis set group =>   3
Atom  12C    basis set group =>   1
Atom  13C    basis set group =>   1
Atom  14C    basis set group =>   1
Atom  15C    basis set group =>   1
Atom  16O    basis set group =>   2
Atom  17N    basis set group =>   3
Atom  18C    basis set group =>   1
Atom  19C    basis set group =>   1
Atom  20H    basis set group =>   4
Atom  21H    basis set group =>   4
Atom  22H    basis set group =>   4
Atom  23H    basis set group =>   4
Atom  24H    basis set group =>   4
Atom  25H    basis set group =>   4
Atom  26H    basis set group =>   4
Atom  27H    basis set group =>   4
Atom  28H    basis set group =>   4
Atom  29H    basis set group =>   4
Atom  30H    basis set group =>   4
Atom  31H    basis set group =>   4
Atom  32H    basis set group =>   4
Atom  33H    basis set group =>   4
---------------------------------
AUXILIARY/J BASIS SET INFORMATION
---------------------------------
There are 4 groups of distinct atoms

 Group   1 Type C   : 12s5p4d2f1g contracted to 6s4p3d1f1g pattern {711111/2111/211/2/1}
 Group   2 Type O   : 12s5p4d2f1g contracted to 6s4p3d1f1g pattern {711111/2111/211/2/1}
 Group   3 Type N   : 12s5p4d2f1g contracted to 6s4p3d1f1g pattern {711111/2111/211/2/1}
 Group   4 Type H   : 5s2p1d contracted to 3s1p1d pattern {311/2/1}

Atom   0C    basis set group =>   1
Atom   1C    basis set group =>   1
Atom   2C    basis set group =>   1
Atom   3C    basis set group =>   1
Atom   4C    basis set group =>   1
Atom   5O    basis set group =>   2
Atom   6C    basis set group =>   1
Atom   7C    basis set group =>   1
Atom   8C    basis set group =>   1
Atom   9C    basis set group =>   1
Atom  10C    basis set group =>   1
Atom  11N    basis set group =>   3
Atom  12C    basis set group =>   1
Atom  13C    basis set group =>   1
Atom  14C    basis set group =>   1
Atom  15C    basis set group =>   1
Atom  16O    basis set group =>   2
Atom  17N    basis set group =>   3
Atom  18C    basis set group =>   1
Atom  19C    basis set group =>   1
Atom  20H    basis set group =>   4
Atom  21H    basis set group =>   4
Atom  22H    basis set group =>   4
Atom  23H    basis set group =>   4
Atom  24H    basis set group =>   4
Atom  25H    basis set group =>   4
Atom  26H    basis set group =>   4
Atom  27H    basis set group =>   4
Atom  28H    basis set group =>   4
Atom  29H    basis set group =>   4
Atom  30H    basis set group =>   4
Atom  31H    basis set group =>   4
Atom  32H    basis set group =>   4
Atom  33H    basis set group =>   4
---------------------------------
AUXILIARY/C BASIS SET INFORMATION
---------------------------------
There are 4 groups of distinct atoms

 Group   1 Type C   : 8s6p5d3f1g contracted to 8s6p4d3f1g pattern {11111111/111111/2111/111/1}
 Group   2 Type O   : 8s6p5d3f1g contracted to 8s6p4d3f1g pattern {11111111/111111/2111/111/1}
 Group   3 Type N   : 8s6p5d3f1g contracted to 8s6p4d3f1g pattern {11111111/111111/2111/111/1}
 Group   4 Type H   : 4s3p2d contracted to 4s2p1d pattern {1111/21/2}

Atom   0C    basis set group =>   1
Atom   1C    basis set group =>   1
Atom   2C    basis set group =>   1
Atom   3C    basis set group =>   1
Atom   4C    basis set group =>   1
Atom   5O    basis set group =>   2
Atom   6C    basis set group =>   1
Atom   7C    basis set group =>   1
Atom   8C    basis set group =>   1
Atom   9C    basis set group =>   1
Atom  10C    basis set group =>   1
Atom  11N    basis set group =>   3
Atom  12C    basis set group =>   1
Atom  13C    basis set group =>   1
Atom  14C    basis set group =>   1
Atom  15C    basis set group =>   1
Atom  16O    basis set group =>   2
Atom  17N    basis set group =>   3
Atom  18C    basis set group =>   1
Atom  19C    basis set group =>   1
Atom  20H    basis set group =>   4
Atom  21H    basis set group =>   4
Atom  22H    basis set group =>   4
Atom  23H    basis set group =>   4
Atom  24H    basis set group =>   4
Atom  25H    basis set group =>   4
Atom  26H    basis set group =>   4
Atom  27H    basis set group =>   4
Atom  28H    basis set group =>   4
Atom  29H    basis set group =>   4
Atom  30H    basis set group =>   4
Atom  31H    basis set group =>   4
Atom  32H    basis set group =>   4
Atom  33H    basis set group =>   4
------------------------------------------------------------------------------
                             ORCA STARTUP CALCULATIONS
                           -- RI-GTO INTEGRALS CHOSEN --
------------------------------------------------------------------------------
------------------------------------------------------------------------------
                   ___                                                        
                  /   \      - P O W E R E D   B Y -                         
                 /     \                                                     
                 |  |  |   _    _      __       _____    __    __             
                 |  |  |  | |  | |    /  \     |  _  \  |  |  /  |          
                  \  \/   | |  | |   /    \    | | | |  |  | /  /          
                 / \  \   | |__| |  /  /\  \   | |_| |  |  |/  /          
                |  |  |   |  __  | /  /__\  \  |    /   |      \           
                |  |  |   | |  | | |   __   |  |    \   |  |\   \          
                \     /   | |  | | |  |  |  |  | |\  \  |  | \   \       
                 \___/    |_|  |_| |__|  |__|  |_| \__\ |__|  \__/        
                                                                              
                      - O R C A' S   B I G   F R I E N D -                    
                                      &                                       
                       - I N T E G R A L  F E E D E R -                       
                                                                              
 v1 FN, 2020, v2 2021, v3 2022-2024                                           
------------------------------------------------------------------------------


----------------------
SHARK INTEGRAL PACKAGE
----------------------

Number of atoms                             ...     34
Number of basis functions                   ...    564
Number of shells                            ...    256
Maximum angular momentum                    ...      2
Integral batch strategy                     ... SHARK/LIBINT Hybrid
RI-J (if used) integral strategy            ... SPLIT-RIJ (Revised 2003 algorithm where possible)
Printlevel                                  ...      1
Contraction scheme used                     ... SEGMENTED contraction
Prescreening option                         ... SCHWARTZ
   Thresh                                   ... 2.500e-11
   Tcut                                     ... 2.500e-12
   Tpresel                                  ... 2.500e-12 
Coulomb Range Separation                    ... NOT USED
Exchange Range Separation                   ... NOT USED
Multipole approximations                    ... NOT USED
Finite Nucleus Model                        ... NOT USED
CABS basis                                  ... NOT available
Auxiliary Coulomb fitting basis             ... AVAILABLE
   # of basis functions in Aux-J            ...   1134
   # of shells in Aux-J                     ...    370
   Maximum angular momentum in Aux-J        ...      4
Auxiliary J/K fitting basis                 ... NOT available
Auxiliary Correlation fitting basis         ... AVAILABLE
   # of basis functions in Aux-C            ...   1730
   # of shells in Aux-C                     ...    538
   Maximum angular momentum in Aux-C        ...      4
Auxiliary 'external' fitting basis          ... NOT available

Checking pre-screening integrals            ... done (  0.0 sec) Dimension = 256
Check shell pair data                       ... done (  0.0 sec)
Shell pair information
Shell pair cut-off parameter TPreSel        ...   2.5e-12
Total number of shell pairs                 ...     32896
Shell pairs after pre-screening             ...     25025
Total number of primitive shell pairs       ...    108362
Primitive shell pairs kept                  ...     54690
          la=0 lb=0:   7283 shell pairs
          la=1 lb=0:   8184 shell pairs
          la=1 lb=1:   2309 shell pairs
          la=2 lb=0:   4205 shell pairs
          la=2 lb=1:   2391 shell pairs
          la=2 lb=2:    653 shell pairs

Calculating one electron integrals          ... done (  0.1 sec)
Calculating RI/J V-Matrix + Cholesky decomp.... done (  0.3 sec)
Calculating RI/C V-Matrix + Cholesky decomp.... done (  0.7 sec)
Calculating Nuclear repulsion               ... done (  0.0 sec) ENN=   1509.270395339567 Eh

Diagonalization of the overlap matrix:
Smallest eigenvalue                        ... 3.923e-06
Time for diagonalization                   ...    0.027 sec
Threshold for overlap eigenvalues          ... 1.000e-07
Number of eigenvalues below threshold      ... 0
Time for construction of square roots      ...    0.047 sec
Total time needed                          ...    0.086 sec

-------------------
DFT GRID GENERATION
-------------------

General Integration Accuracy     IntAcc      ... 4.388
Radial Grid Type                 RadialGrid  ... OptM3 with GC (2021)
Angular Grid (max. ang.)         AngularGrid ... 4 (Lebedev-302)
Angular grid pruning method      GridPruning ... 4 (adaptive)
Weight generation scheme         WeightScheme... mBecke (2022)
Basis function cutoff            BFCut       ... 1.0000e-11
Integration weight cutoff        WCut        ... 1.0000e-14
Partially contracted basis set               ... off
Rotationally invariant grid construction     ... off
Angular grids for H and He will be reduced by one unit

Total number of grid points                  ...   164475
Total number of batches                      ...     2585
Average number of points per batch           ...       63
Average number of grid points per atom       ...     4838

--------------------
COSX GRID GENERATION
--------------------

GRIDX 1
-------
General Integration Accuracy     IntAcc      ... 3.816
Radial Grid Type                 RadialGrid  ... OptM3 with GC (2021)
Angular Grid (max. ang.)         AngularGrid ... 1 (Lebedev-50)
Angular grid pruning method      GridPruning ... 4 (adaptive)
Weight generation scheme         WeightScheme... mBecke (2022)
Basis function cutoff            BFCut       ... 1.0000e-11
Integration weight cutoff        WCut        ... 1.0000e-14
Partially contracted basis set               ... on
Rotationally invariant grid construction     ... off
Angular grids for H and He will be reduced by one unit

Total number of grid points                  ...    20932
Total number of batches                      ...      181
Average number of points per batch           ...      115
Average number of grid points per atom       ...      616
UseSFitting                                  ... on

GRIDX 2
-------
General Integration Accuracy     IntAcc      ... 4.020
Radial Grid Type                 RadialGrid  ... OptM3 with GC (2021)
Angular Grid (max. ang.)         AngularGrid ... 2 (Lebedev-110)
Angular grid pruning method      GridPruning ... 4 (adaptive)
Weight generation scheme         WeightScheme... mBecke (2022)
Basis function cutoff            BFCut       ... 1.0000e-11
Integration weight cutoff        WCut        ... 1.0000e-14
Partially contracted basis set               ... on
Rotationally invariant grid construction     ... off
Angular grids for H and He will be reduced by one unit

Total number of grid points                  ...    45712
Total number of batches                      ...      372
Average number of points per batch           ...      122
Average number of grid points per atom       ...     1344
UseSFitting                                  ... on

GRIDX 3
-------
General Integration Accuracy     IntAcc      ... 4.338
Radial Grid Type                 RadialGrid  ... OptM3 with GC (2021)
Angular Grid (max. ang.)         AngularGrid ... 3 (Lebedev-194)
Angular grid pruning method      GridPruning ... 4 (adaptive)
Weight generation scheme         WeightScheme... mBecke (2022)
Basis function cutoff            BFCut       ... 1.0000e-11
Integration weight cutoff        WCut        ... 1.0000e-14
Partially contracted basis set               ... on
Rotationally invariant grid construction     ... off
Angular grids for H and He will be reduced by one unit

Total number of grid points                  ...   100020
Total number of batches                      ...      799
Average number of points per batch           ...      125
Average number of grid points per atom       ...     2942
UseSFitting                                  ... on
Initializing property integral containers    ... done (  0.0 sec)

SHARK setup successfully completed in   6.3 seconds

Maximum memory used throughout the entire STARTUP-calculation: 104.6 MB
-------------------------------------------------------------------------------
                                 ORCA GUESS
                   Start orbitals & Density for SCF / CASSCF
-------------------------------------------------------------------------------

------------
SCF SETTINGS
------------
Hamiltonian:
 Density Functional     Method          .... DFT(GTOs)
 Exchange Functional    Exchange        .... B88
   X-Alpha parameter    XAlpha          ....  0.666667
   Becke's b parameter  XBeta           ....  0.004200
 Correlation Functional Correlation     .... LYP
 LDA part of GGA corr.  LDAOpt          .... VWN-3
 Gradients option       PostSCFGGA      .... off
 Hybrid DFT is turned on
   Fraction HF Exchange ScalHFX         ....  0.200000
   Scaling of DF-GGA-X  ScalDFX         ....  0.720000
   Scaling of DF-GGA-C  ScalDFC         ....  0.810000
   Scaling of DF-LDA-C  ScalLDAC        ....  1.000000
   Perturbative correction              ....  0.000000
   NL short-range parameter             ....  4.800000
 RI-approximation to the Coulomb term is turned on
   Number of AuxJ basis functions       .... 1134
   RIJ-COSX (HFX calculated with COS-X)).... on


General Settings:
 Integral files         IntName         .... hbq-gs
 Hartree-Fock type      HFTyp           .... RHF
 Total Charge           Charge          ....    0
 Multiplicity           Mult            ....    1
 Number of Electrons    NEL             ....  140
 Basis Dimension        Dim             ....  564
 Nuclear Repulsion      ENuc            ....   1509.2703953396 Eh

Convergence Acceleration:
 AO-DIIS                CNVDIIS         .... on
   Start iteration      DIISMaxIt       ....    12
   Startup error        DIISStart       ....  0.200000
   # of expansion vecs  DIISMaxEq       ....     5
   Bias factor          DIISBfac        ....   1.050
   Max. coefficient     DIISMaxC        ....  10.000
 MO-DIIS                CNVKDIIS        .... off
 Trust-Rad. Augm. Hess. CNVTRAH         .... auto
   Auto Start mean grad. ratio tolernc. ....  1.125000
   Auto Start start iteration           ....    50
   Auto Start num. interpolation iter.  ....    10
   Max. Number of Micro iterations      ....    24
   Max. Number of Macro iterations      .... Maxiter - #DIIS iter
   Number of Davidson start vectors     ....     2
   Converg. threshold    (grad. norm)   ....   1.000e-05
   Grad. Scal. Fac. for Micro threshold ....   0.100
   Minimum threshold for Micro iter.    ....   1.000e-02
   NR start threshold (gradient norm)   ....   1.000e-04
   Initial trust radius                 ....   0.400
   Minimum AH scaling param. (alpha)    ....   1.000
   Maximum AH scaling param. (alpha)    .... 1000.000
   Quad. conv. algorithm                .... NR
   White noise on init. David. guess    .... on
   Maximum white noise                  ....   0.010
   Pseudo random numbers                .... off
   Inactive MOs                         .... canonical
   Orbital update algorithm             .... Taylor
   Preconditioner                       .... Diag
   Full preconditioner red. dimension   ....   250
 SOSCF                  CNVSOSCF        .... on
   Start iteration      SOSCFMaxIt      ....   150
   Startup grad/error   SOSCFStart      ....  0.003300
   Hessian update       SOSCFHessUp     .... L-BFGS
 Level Shifting         CNVShift        .... on
   Level shift para.    LevelShift      ....    0.2500
   Turn off err/grad.   ShiftErr        ....    0.0010
 Zerner damping         CNVZerner       .... off
 Static damping         CNVDamp         .... on
   Fraction old density DampFac         ....    0.7000
   Max. Damping (<1)    DampMax         ....    0.9800
   Min. Damping (>=0)   DampMin         ....    0.0000
   Turn off err/grad.   DampErr         ....    0.1000

SCF Procedure:
 Maximum # iterations   MaxIter         ....   125
 SCF integral mode      SCFMode         .... Direct
   Integral package                     .... SHARK and LIBINT hybrid scheme
 Reset frequency        DirectResetFreq ....    20
 Integral Threshold     Thresh          ....  2.500e-11 Eh
 Primitive CutOff       TCut            ....  2.500e-12 Eh

Convergence Tolerance:
 Convergence Check Mode ConvCheckMode   .... Total+1el-Energy
 Convergence forced     ConvForced      .... 0
 Energy Change          TolE            ....  1.000e-08 Eh
 1-El. energy change                    ....  1.000e-05 Eh
 Orbital Gradient       TolG            ....  1.000e-05
 Orbital Rotation angle TolX            ....  1.000e-05
 DIIS Error             TolErr          ....  5.000e-07

------------------------------
INITIAL GUESS: MODEL POTENTIAL
------------------------------
Loading Hartree-Fock densities                     ... done
Calculating cut-offs                               ... done
Initializing the effective Hamiltonian             ... done
Setting up the integral package (SHARK)            ... done
Starting the Coulomb interaction                   ... done (   0.8 sec)
Making the grid                                    ... done (   0.4 sec)
Mapping shells                                     ... done
Starting the XC term evaluation                    ... done (   0.5 sec)
  promolecular density results
     # of electrons  =    139.977947245
     EX              =   -116.016159947
     EC              =     -4.782821211
     EX+EC           =   -120.798981158
Transforming the Hamiltonian                       ... done (   0.0 sec)
Diagonalizing the Hamiltonian                      ... done (   0.0 sec)
Back transforming the eigenvectors                 ... done (   0.0 sec)
Now organizing SCF variables                       ... done
                      ------------------
                      INITIAL GUESS DONE (   2.1 sec)
                      ------------------
             **** ENERGY FILE WAS UPDATED (hbq-gs.en.tmp) ****
Finished Guess after   2.7 sec
Maximum memory used throughout the entire GUESS-calculation: 72.7 MB

-------------------------------------------------------------------------------------------
                                      ORCA LEAN-SCF
                              memory conserving SCF solver
-------------------------------------------------------------------------------------------

--------------------
CPCM SOLVATION MODEL
--------------------
CPCM parameters:
  Epsilon                                         ...      80.1510
  Refrac                                          ...       1.3328
  Rsolv                                           ...       1.3000
  Surface type                                    ... GAUSSIAN VDW
  Discretization scheme                           ... Constant charge density
    Threshold for H atoms                         ...       5.0000 (charges/Ang^2)
    Threshold for non-H atoms                     ...       5.0000 (charges/Ang^2)
  Epsilon function type                           ...         CPCM
Solvent:                                          ... WATER
Radii:
  Scheme                                          ... Element-dependent radii
  Radius for C  used is    3.8550 Bohr (=   2.0400 Ang.)
  Radius for O  used is    3.4469 Bohr (=   1.8240 Ang.)
  Radius for N  used is    3.5149 Bohr (=   1.8600 Ang.)
  Radius for H  used is    2.4944 Bohr (=   1.3200 Ang.)
Calculating surface                               ...        done! (  0.0s)
Cavity surface points                             ...         2995
Cavity Volume                                     ...    2120.9768
Cavity Surface-area                               ...    1080.9963
Calculating surface distance matrix               ...        done! (  0.0s)
Performing Cholesky decomposition & store         ...        done! (  1.0s)
Overall time for CPCM initialization              ...                 1.1s

----------------------------------------D-I-I-S--------------------------------------------
Iteration    Energy (Eh)           Delta-E    RMSDP     MaxDP     DIISErr   Damp  Time(sec)
-------------------------------------------------------------------------------------------
               ***  Starting incremental Fock matrix formation  ***
    1    -877.9584893564624508     0.00e+00  2.11e-03  9.94e-02  3.16e-01  0.700  28.3
    2    -878.1781324321482316    -2.20e-01  1.82e-03  1.19e-01  1.25e-01  0.700  14.5
                               ***Turning on AO-DIIS***
    3    -878.2679638670510940    -8.98e-02  8.30e-04  3.19e-02  3.46e-02  0.700  14.3
    4    -878.3220806960725895    -5.41e-02  1.37e-03  6.40e-02  1.96e-02  0.000  13.7
    5    -878.4395780317713616    -1.17e-01  3.99e-04  3.55e-02  5.46e-03  0.000  14.2
                              *** Initializing SOSCF ***
---------------------------------------S-O-S-C-F--------------------------------------
Iteration    Energy (Eh)           Delta-E    RMSDP     MaxDP     MaxGrad    Time(sec)
--------------------------------------------------------------------------------------
    6    -878.4402063838151662    -6.28e-04  1.15e-04  8.94e-03  2.14e-03    13.8
               *** Restarting incremental Fock matrix formation ***
    7    -878.4402244554717072    -1.81e-05  1.53e-04  1.57e-02  4.81e-04    28.1
    8    -878.4402047961066273     1.97e-05  4.73e-05  3.98e-03  1.06e-03    19.6
    9    -878.4402349137412784    -3.01e-05  7.62e-06  5.08e-04  3.03e-05    17.8
   10    -878.4402348376806913     7.61e-08  4.61e-06  4.04e-04  4.33e-05    15.0
   11    -878.4402350196701263    -1.82e-07  6.13e-06  7.10e-04  8.45e-06    13.6
   12    -878.4402350075570212     1.21e-08  2.65e-06  1.62e-04  1.01e-05    12.8
   13    -878.4402350176706022    -1.01e-08  5.84e-06  3.64e-04  1.24e-06    11.5
                  *** Gradient check signals convergence ***

               *****************************************************
               *                     SUCCESS                       *
               *           SCF CONVERGED AFTER  13 CYCLES          *
               *****************************************************

Recomputing exchange energy using gridx3       ... done (   44.898 sec)
Old exchange energy                            :    -23.542431532 Eh
New exchange energy                            :    -23.542437184 Eh
Exchange energy change after final integration :     -0.000005652 Eh
Total energy after final integration           :   -878.440240670 Eh
             **** ENERGY FILE WAS UPDATED (hbq-gs.en.tmp) ****

----------------
TOTAL SCF ENERGY
----------------

Total Energy       :       -878.44024067013038 Eh          -23903.57418 eV

Components:
Nuclear Repulsion  :       1509.27039533956713 Eh           41069.33538 eV
Electronic Energy  :      -2387.68677964286462 Eh          -64972.26040 eV
One Electron Energy:      -4192.04167305155624 Eh         -114071.25319 eV
Two Electron Energy:       1804.35489340869162 Eh           49098.99279 eV
CPCM Dielectric    :         -0.02385071437319 Eh              -0.64901 eV

Virial components:
Potential Energy   :      -1752.46938566632002 Eh          -47687.11635 eV
Kinetic Energy     :        874.02914499618964 Eh           23783.54217 eV
Virial Ratio       :          2.00504685192616

DFT components:
N(Alpha)           :       70.000126352666 electrons
N(Beta)            :       70.000126352666 electrons
N(Total)           :      140.000252705333 electrons
E(X)               :      -93.594235872999 Eh       
E(C)               :       -6.154977029064 Eh       
E(XC)              :      -99.749212902064 Eh       

CPCM Solvation Model Properties:
Surface-charge          :         -0.03295025081027
Corrected charge        :         -0.00000000000000
Outlying charge corr.   :          0.00006100603154 Eh               0.00166 eV
Free-energy (cav+disp)  :  This term is not implemented in the current solvation scheme

---------------
SCF CONVERGENCE
---------------

  Last Energy change         ...    1.0114e-08  Tolerance :   1.0000e-08
  Last MAX-Density change    ...    3.6369e-04  Tolerance :   1.0000e-07
  Last RMS-Density change    ...    5.8395e-06  Tolerance :   5.0000e-09
  Last DIIS Error            ...    2.1429e-03  Tolerance :   5.0000e-07
  Last Orbital Gradient      ...    1.2416e-06  Tolerance :   1.0000e-05
  Last Orbital Rotation      ...    3.9627e-06  Tolerance :   1.0000e-05


----------------
ORBITAL ENERGIES
----------------

  NO   OCC          E(Eh)            E(eV) 
   0   2.0000     -19.174886      -521.7752 
   1   2.0000     -19.102727      -519.8116 
   2   2.0000     -14.353101      -390.5677 
   3   2.0000     -14.319584      -389.6557 
   4   2.0000     -10.323000      -280.9031 
   5   2.0000     -10.248937      -278.8878 
   6   2.0000     -10.227672      -278.3091 
   7   2.0000     -10.213536      -277.9245 
   8   2.0000     -10.203680      -277.6562 
   9   2.0000     -10.200143      -277.5600 
  10   2.0000     -10.198567      -277.5171 
  11   2.0000     -10.198366      -277.5116 
  12   2.0000     -10.197036      -277.4755 
  13   2.0000     -10.195313      -277.4286 
  14   2.0000     -10.185406      -277.1590 
  15   2.0000     -10.185339      -277.1572 
  16   2.0000     -10.185272      -277.1554 
  17   2.0000     -10.184655      -277.1386 
  18   2.0000     -10.183037      -277.0945 
  19   2.0000     -10.182225      -277.0724 
  20   2.0000      -1.116131       -30.3715 
  21   2.0000      -1.025181       -27.8966 
  22   2.0000      -0.955099       -25.9896 
  23   2.0000      -0.946954       -25.7679 
  24   2.0000      -0.880661       -23.9640 
  25   2.0000      -0.838856       -22.8264 
  26   2.0000      -0.807628       -21.9767 
  27   2.0000      -0.783476       -21.3195 
  28   2.0000      -0.751947       -20.4615 
  29   2.0000      -0.744854       -20.2685 
  30   2.0000      -0.721873       -19.6432 
  31   2.0000      -0.706579       -19.2270 
  32   2.0000      -0.656130       -17.8542 
  33   2.0000      -0.648918       -17.6580 
  34   2.0000      -0.631952       -17.1963 
  35   2.0000      -0.619856       -16.8671 
  36   2.0000      -0.574857       -15.6426 
  37   2.0000      -0.547840       -14.9075 
  38   2.0000      -0.537466       -14.6252 
  39   2.0000      -0.531364       -14.4592 
  40   2.0000      -0.516666       -14.0592 
  41   2.0000      -0.497788       -13.5455 
  42   2.0000      -0.493330       -13.4242 
  43   2.0000      -0.483996       -13.1702 
  44   2.0000      -0.480012       -13.0618 
  45   2.0000      -0.466945       -12.7062 
  46   2.0000      -0.446030       -12.1371 
  47   2.0000      -0.445490       -12.1224 
  48   2.0000      -0.437585       -11.9073 
  49   2.0000      -0.430305       -11.7092 
  50   2.0000      -0.420564       -11.4441 
  51   2.0000      -0.415337       -11.3019 
  52   2.0000      -0.408240       -11.1088 
  53   2.0000      -0.406784       -11.0692 
  54   2.0000      -0.405942       -11.0463 
  55   2.0000      -0.401350       -10.9213 
  56   2.0000      -0.386569       -10.5191 
  57   2.0000      -0.385199       -10.4818 
  58   2.0000      -0.377556       -10.2738 
  59   2.0000      -0.364447        -9.9171 
  60   2.0000      -0.356936        -9.7127 
  61   2.0000      -0.337935        -9.1957 
  62   2.0000      -0.320597        -8.7239 
  63   2.0000      -0.307492        -8.3673 
  64   2.0000      -0.292580        -7.9615 
  65   2.0000      -0.282667        -7.6917 
  66   2.0000      -0.264072        -7.1858 
  67   2.0000      -0.251949        -6.8559 
  68   2.0000      -0.250195        -6.8082 
  69   2.0000      -0.230426        -6.2702 
  70   0.0000      -0.064558        -1.7567 
  71   0.0000      -0.056321        -1.5326 
  72   0.0000      -0.019282        -0.5247 
  73   0.0000       0.007579         0.2062 
  74   0.0000       0.032675         0.8891 
  75   0.0000       0.042092         1.1454 
  76   0.0000       0.052583         1.4309 
  77   0.0000       0.059230         1.6117 
  78   0.0000       0.063895         1.7387 
  79   0.0000       0.076886         2.0922 
  80   0.0000       0.079402         2.1606 
*Only the first 10 virtual orbitals were printed.

                    ********************************
                    * MULLIKEN POPULATION ANALYSIS *
                    ********************************

-----------------------
MULLIKEN ATOMIC CHARGES
-----------------------
   0 C :   -0.158628
   1 C :   -0.114533
   2 C :   -0.187791
   3 C :    0.134832
   4 C :    0.163183
   5 O :   -0.472905
   6 C :    0.234303
   7 C :   -0.246251
   8 C :   -0.258491
   9 C :    0.161245
  10 C :    0.333695
  11 N :   -0.518415
  12 C :    0.063195
  13 C :   -0.044688
  14 C :   -0.208535
  15 C :    0.741240
  16 O :   -0.636185
  17 N :   -0.228073
  18 C :   -0.267787
  19 C :   -0.249211
  20 H :    0.133370
  21 H :    0.144209
  22 H :    0.137167
  23 H :    0.151338
  24 H :    0.136662
  25 H :    0.138017
  26 H :    0.112023
  27 H :    0.112756
  28 H :    0.113216
  29 H :    0.108906
  30 H :    0.105781
  31 H :    0.119175
  32 H :    0.122834
  33 H :    0.124346
Sum of atomic charges:    0.0000000

--------------------------------
MULLIKEN REDUCED ORBITAL CHARGES
--------------------------------
  0 C s       :     3.220843  s :     3.220843
      pz      :     0.974464  p :     2.859612
      px      :     0.903267
      py      :     0.981881
      dz2     :     0.017109  d :     0.078173
      dxz     :     0.014174
      dyz     :     0.013474
      dx2y2   :     0.017185
      dxy     :     0.016231

  1 C s       :     3.205932  s :     3.205932
      pz      :     0.941791  p :     2.821983
      px      :     0.938013
      py      :     0.942179
      dz2     :     0.017099  d :     0.086618
      dxz     :     0.020506
      dyz     :     0.009869
      dx2y2   :     0.017596
      dxy     :     0.021547

  2 C s       :     3.218438  s :     3.218438
      pz      :     0.965073  p :     2.882204
      px      :     0.959531
      py      :     0.957600
      dz2     :     0.010139  d :     0.087148
      dxz     :     0.024069
      dyz     :     0.007887
      dx2y2   :     0.019055
      dxy     :     0.025999

  3 C s       :     3.128897  s :     3.128897
      pz      :     0.758465  p :     2.542518
      px      :     0.844729
      py      :     0.939324
      dz2     :     0.037545  d :     0.193753
      dxz     :     0.045321
      dyz     :     0.019539
      dx2y2   :     0.053241
      dxy     :     0.038108

  4 C s       :     3.414964  s :     3.414964
      pz      :     0.914071  p :     2.286790
      px      :     0.642251
      py      :     0.730468
      dz2     :     0.023085  d :     0.135062
      dxz     :     0.029370
      dyz     :     0.016313
      dx2y2   :     0.029044
      dxy     :     0.037249

  5 O s       :     3.835189  s :     3.835189
      pz      :     1.571041  p :     4.593502
      px      :     1.697882
      py      :     1.324580
      dz2     :     0.009582  d :     0.044214
      dxz     :     0.006261
      dyz     :     0.012088
      dx2y2   :     0.009304
      dxy     :     0.006979

  6 C s       :     3.036825  s :     3.036825
      pz      :     0.879763  p :     2.576743
      px      :     0.839584
      py      :     0.857396
      dz2     :     0.026837  d :     0.152129
      dxz     :     0.033496
      dyz     :     0.020218
      dx2y2   :     0.036004
      dxy     :     0.035575

  7 C s       :     3.276461  s :     3.276461
      pz      :     0.953552  p :     2.882828
      px      :     0.980690
      py      :     0.948586
      dz2     :     0.010712  d :     0.086961
      dxz     :     0.020819
      dyz     :     0.010159
      dx2y2   :     0.025987
      dxy     :     0.019284

  8 C s       :     3.298897  s :     3.298897
      pz      :     0.972507  p :     2.871431
      px      :     0.921896
      py      :     0.977028
      dz2     :     0.020969  d :     0.088163
      dxz     :     0.012189
      dyz     :     0.016356
      dx2y2   :     0.024789
      dxy     :     0.013860

  9 C s       :     3.075400  s :     3.075400
      pz      :     0.878132  p :     2.595183
      px      :     0.906559
      py      :     0.810492
      dz2     :     0.029741  d :     0.168171
      dxz     :     0.042699
      dyz     :     0.012727
      dx2y2   :     0.040425
      dxy     :     0.042579

 10 C s       :     3.023638  s :     3.023638
      pz      :     0.833606  p :     2.499640
      px      :     0.838830
      py      :     0.827204
      dz2     :     0.028242  d :     0.143027
      dxz     :     0.028268
      dyz     :     0.020474
      dx2y2   :     0.037275
      dxy     :     0.028768

 11 N s       :     3.662632  s :     3.662632
      pz      :     1.154816  p :     3.778088
      px      :     1.505086
      py      :     1.118186
      dz2     :     0.014657  d :     0.077695
      dxz     :     0.016254
      dyz     :     0.012224
      dx2y2   :     0.015030
      dxy     :     0.019530

 12 C s       :     3.142859  s :     3.142859
      pz      :     0.920937  p :     2.684046
      px      :     0.863287
      py      :     0.899822
      dz2     :     0.014582  d :     0.109900
      dxz     :     0.024221
      dyz     :     0.010937
      dx2y2   :     0.035177
      dxy     :     0.024984

 13 C s       :     3.126891  s :     3.126891
      pz      :     0.959108  p :     2.837977
      px      :     0.924984
      py      :     0.953885
      dz2     :     0.014044  d :     0.079819
      dxz     :     0.019328
      dyz     :     0.009745
      dx2y2   :     0.016862
      dxy     :     0.019839

 14 C s       :     3.235797  s :     3.235797
      pz      :     0.947544  p :     2.886186
      px      :     0.991505
      py      :     0.947137
      dz2     :     0.018789  d :     0.086552
      dxz     :     0.016824
      dyz     :     0.013927
      dx2y2   :     0.018979
      dxy     :     0.018033

 15 C s       :     2.799456  s :     2.799456
      pz      :     0.708978  p :     2.167891
      px      :     0.793708
      py      :     0.665205
      dz2     :     0.065576  d :     0.291414
      dxz     :     0.068530
      dyz     :     0.088208
      dx2y2   :     0.033339
      dxy     :     0.035760

 16 O s       :     3.876409  s :     3.876409
      pz      :     1.440059  p :     4.726825
      px      :     1.570874
      py      :     1.715892
      dz2     :     0.011560  d :     0.032950
      dxz     :     0.009859
      dyz     :     0.008683
      dx2y2   :     0.001166
      dxy     :     0.001682

 17 N s       :     3.439414  s :     3.439414
      pz      :     1.096079  p :     3.698664
      px      :     1.492475
      py      :     1.110111
      dz2     :     0.021636  d :     0.089994
      dxz     :     0.014966
      dyz     :     0.028505
      dx2y2   :     0.012451
      dxy     :     0.012436

 18 C s       :     3.251054  s :     3.251054
      pz      :     0.806741  p :     2.949337
      px      :     1.090835
      py      :     1.051761
      dz2     :     0.015865  d :     0.067396
      dxz     :     0.022051
      dyz     :     0.014566
      dx2y2   :     0.006503
      dxy     :     0.008410

 19 C s       :     3.242277  s :     3.242277
      pz      :     1.098589  p :     2.941170
      px      :     1.047705
      py      :     0.794876
      dz2     :     0.008913  d :     0.065764
      dxz     :     0.004211
      dyz     :     0.013134
      dx2y2   :     0.020332
      dxy     :     0.019175

 20 H s       :     0.843913  s :     0.843913
      pz      :     0.004674  p :     0.022718
      px      :     0.014938
      py      :     0.003106

 21 H s       :     0.831194  s :     0.831194
      pz      :     0.015027  p :     0.024597
      px      :     0.004783
      py      :     0.004787

 22 H s       :     0.840006  s :     0.840006
      pz      :     0.008543  p :     0.022827
      px      :     0.006368
      py      :     0.007915

 23 H s       :     0.824286  s :     0.824286
      pz      :     0.003768  p :     0.024376
      px      :     0.007802
      py      :     0.012806

 24 H s       :     0.840573  s :     0.840573
      pz      :     0.003707  p :     0.022765
      px      :     0.014262
      py      :     0.004796

 25 H s       :     0.839025  s :     0.839025
      pz      :     0.008893  p :     0.022958
      px      :     0.005531
      py      :     0.008534

 26 H s       :     0.861777  s :     0.861777
      pz      :     0.010791  p :     0.026200
      px      :     0.005034
      py      :     0.010375

 27 H s       :     0.861025  s :     0.861025
      pz      :     0.005342  p :     0.026220
      px      :     0.016740
      py      :     0.004137

 28 H s       :     0.860749  s :     0.860749
      pz      :     0.006916  p :     0.026035
      px      :     0.009194
      py      :     0.009926

 29 H s       :     0.864934  s :     0.864934
      pz      :     0.010877  p :     0.026160
      px      :     0.004577
      py      :     0.010707

 30 H s       :     0.868020  s :     0.868020
      pz      :     0.005291  p :     0.026199
      px      :     0.016696
      py      :     0.004211

 31 H s       :     0.856036  s :     0.856036
      pz      :     0.010286  p :     0.024790
      px      :     0.004369
      py      :     0.010135

 32 H s       :     0.850787  s :     0.850787
      pz      :     0.007118  p :     0.026379
      px      :     0.009383
      py      :     0.009879

 33 H s       :     0.849711  s :     0.849711
      pz      :     0.005040  p :     0.025943
      px      :     0.016874
      py      :     0.004029



                     *******************************
                     * LOEWDIN POPULATION ANALYSIS *
                     *******************************

----------------------
LOEWDIN ATOMIC CHARGES
----------------------
   0 C :   -0.099901
   1 C :   -0.121411
   2 C :   -0.096773
   3 C :   -0.122934
   4 C :   -0.027855
   5 O :    0.173182
   6 C :   -0.080733
   7 C :   -0.090338
   8 C :   -0.093726
   9 C :   -0.088357
  10 C :   -0.089282
  11 N :    0.065816
  12 C :   -0.156551
  13 C :   -0.128670
  14 C :   -0.064333
  15 C :   -0.356135
  16 O :   -0.096962
  17 N :    0.074397
  18 C :   -0.225344
  19 C :   -0.221012
  20 H :    0.112179
  21 H :    0.118356
  22 H :    0.113469
  23 H :    0.117242
  24 H :    0.111374
  25 H :    0.115289
  26 H :    0.145832
  27 H :    0.147263
  28 H :    0.143819
  29 H :    0.147463
  30 H :    0.146951
  31 H :    0.133662
  32 H :    0.144524
  33 H :    0.149501

-------------------------------
LOEWDIN REDUCED ORBITAL CHARGES
-------------------------------
  0 C s       :     2.777001  s :     2.777001
      pz      :     0.973125  p :     2.964790
      px      :     0.999903
      py      :     0.991762
      dz2     :     0.068518  d :     0.358110
      dxz     :     0.064931
      dyz     :     0.062266
      dx2y2   :     0.097188
      dxy     :     0.065207

  1 C s       :     2.778816  s :     2.778816
      pz      :     0.958307  p :     2.967116
      px      :     1.047961
      py      :     0.960848
      dz2     :     0.058666  d :     0.375479
      dxz     :     0.096225
      dyz     :     0.041965
      dx2y2   :     0.069833
      dxy     :     0.108791

  2 C s       :     2.771802  s :     2.771802
      pz      :     0.948127  p :     2.958072
      px      :     1.051936
      py      :     0.958009
      dz2     :     0.038543  d :     0.366900
      dxz     :     0.090146
[...]
 49:    991.45   0.005789   29.26  0.001822  ( 0.020035  0.001004 -0.037680)
 50:   1004.11   0.000296    1.49  0.000092  (-0.001235  0.006520 -0.006918)
 51:   1031.98   0.011533   58.28  0.003488  (-0.048511  0.033672  0.000594)
 52:   1046.48   0.005361   27.09  0.001599  (-0.014457  0.037264 -0.001016)
 53:   1075.70   0.003466   17.52  0.001006  ( 0.005320 -0.027928  0.014046)
 54:   1083.98   0.001511    7.63  0.000435  (-0.005716  0.017736  0.009362)
 55:   1109.71   0.000606    3.06  0.000171  ( 0.013053  0.000218 -0.000283)
 56:   1126.02   0.000528    2.67  0.000146  (-0.003589 -0.002705  0.011236)
 57:   1148.33   0.006333   32.00  0.001721  ( 0.008767  0.037297  0.015908)
 58:   1161.86   0.137700  695.88  0.036985  ( 0.086941 -0.145203 -0.091335)
 59:   1172.09   0.000553    2.79  0.000147  (-0.010417  0.003805 -0.004924)
 60:   1177.17   0.056398  285.01  0.014951  ( 0.060867 -0.096535 -0.043897)
 61:   1186.92   0.004232   21.39  0.001113  (-0.016883  0.028089  0.006213)
 62:   1218.13   0.006554   33.12  0.001679  (-0.013574  0.034241  0.017951)
 63:   1223.93   0.007350   37.14  0.001874  (-0.022145  0.033747  0.015644)
 64:   1254.88   0.031154  157.44  0.007747  ( 0.051478 -0.066813 -0.025167)
 65:   1271.20   0.002742   13.86  0.000673  ( 0.003169 -0.025748 -0.000350)
 66:   1277.80   0.001736    8.77  0.000424  ( 0.011670  0.000578 -0.016955)
 67:   1322.74   0.002109   10.66  0.000498  (-0.016161  0.012776  0.008559)
 68:   1340.98   0.006617   33.44  0.001540  (-0.021532  0.026372  0.019511)
 69:   1354.01   0.002140   10.82  0.000493  (-0.013953  0.013279  0.011057)
 70:   1410.03   0.037861  191.33  0.008379  ( 0.013875 -0.077083 -0.047380)
 71:   1415.65   0.027734  140.16  0.006114  ( 0.055892 -0.048529 -0.025191)
 72:   1436.71   0.002785   14.07  0.000605  ( 0.003744  0.007423 -0.023146)
 73:   1452.00   0.004509   22.79  0.000969  (-0.000949 -0.029598 -0.009599)
 74:   1456.52   0.006072   30.68  0.001301  ( 0.000570 -0.031991 -0.016648)
 75:   1462.08   0.006922   34.98  0.001477  ( 0.012866 -0.025160  0.026054)
 76:   1476.08   0.004139   20.92  0.000875  (-0.025701  0.001179  0.014596)
 77:   1478.95   0.000333    1.68  0.000070  (-0.006650 -0.002233 -0.004597)
 78:   1485.65   0.006868   34.71  0.001443  (-0.029554 -0.008152 -0.022422)
 79:   1491.45   0.002678   13.54  0.000560  ( 0.001785 -0.020644  0.011447)
 80:   1522.81   0.017354   87.70  0.003556  (-0.024458  0.054344 -0.002192)
 81:   1531.99   0.002639   13.34  0.000538  ( 0.004002  0.021604  0.007401)
 82:   1545.42   0.007163   36.20  0.001446  ( 0.022870 -0.025378 -0.016713)
 83:   1598.27   0.007844   39.64  0.001532  (-0.037690  0.003835  0.009814)
 84:   1630.76   0.011080   55.99  0.002120  ( 0.010178  0.034940  0.028210)
 85:   1644.75   0.001089    5.51  0.000207  ( 0.007632  0.008395  0.008830)
 86:   1659.38   0.003756   18.98  0.000706  (-0.025414 -0.007379  0.002453)
 87:   1704.20   0.191836  969.46  0.035128  (-0.039481 -0.001028  0.183216)
 88:   3023.29   0.007659   38.70  0.000791  ( 0.003972  0.021030 -0.018234)
 89:   3027.22   0.022186  112.12  0.002287  (-0.035009  0.018311  0.026948)
 90:   3077.69   0.010777   54.46  0.001093  ( 0.023861  0.018297  0.013734)
 91:   3085.47   0.004061   20.52  0.000411  (-0.011812 -0.010851 -0.012388)
 92:   3149.45   0.006853   34.63  0.000679  ( 0.002142 -0.018894 -0.017819)
 93:   3169.66   0.000835    4.22  0.000082  (-0.000584 -0.004754  0.007697)
 94:   3173.78   0.000065    0.33  0.000006  ( 0.002453 -0.000120 -0.000600)
 95:   3176.59   0.001483    7.50  0.000146  (-0.007467  0.009407 -0.001215)
 96:   3179.22   0.001602    8.10  0.000157  (-0.011537  0.002287  0.004348)
 97:   3180.75   0.000065    0.33  0.000006  (-0.001249  0.001250  0.001804)
 98:   3189.52   0.003206   16.20  0.000314  (-0.014558  0.005768  0.008277)
 99:   3192.66   0.004808   24.30  0.000470  (-0.003855  0.015577  0.014574)
100:   3203.25   0.004238   21.42  0.000413  (-0.013608 -0.012390 -0.008611)
101:   3203.51   0.000876    4.43  0.000085  ( 0.007375  0.004892  0.002645)

* The epsilon (eps) is given for a Dirac delta lineshape.
** The dipole moment derivative (T) already includes vibrational overlap.

The first frequency considered to be a vibration is 6
The total number of vibrations considered is 96


--------------------------
THERMOCHEMISTRY AT 298.15K
--------------------------

Temperature         ...   298.15 K
Pressure            ...     1.00 atm
Total Mass          ...   266.30 AMU
Quasi RRHO          ...     True
Cut-Off Frequency   ...     1.00 cm^-1

Throughout the following assumptions are being made:
  (1) The electronic state is orbitally nondegenerate
  (2) There are no thermally accessible electronically excited states
  (3) Hindered rotations indicated by low frequency modes are not
      treated as such but are treated as vibrations and this may
      cause some error
  (4) All equations used are the standard statistical mechanics
      equations for an ideal gas
  (5) All vibrations are strictly harmonic

freq.      30.04  E(vib)   ...       0.55 
freq.      32.56  E(vib)   ...       0.55 
freq.      46.89  E(vib)   ...       0.53 
freq.      53.57  E(vib)   ...       0.52 
freq.      79.84  E(vib)   ...       0.49 
freq.      99.42  E(vib)   ...       0.46 
freq.     112.11  E(vib)   ...       0.45 
freq.     127.29  E(vib)   ...       0.43 
freq.     204.07  E(vib)   ...       0.35 
freq.     216.60  E(vib)   ...       0.34 
freq.     229.25  E(vib)   ...       0.32 
freq.     233.49  E(vib)   ...       0.32 
freq.     241.46  E(vib)   ...       0.31 
freq.     297.30  E(vib)   ...       0.27 
freq.     365.25  E(vib)   ...       0.22 
freq.     378.64  E(vib)   ...       0.21 
freq.     410.24  E(vib)   ...       0.19 
freq.     422.47  E(vib)   ...       0.18 
freq.     465.54  E(vib)   ...       0.16 
freq.     491.60  E(vib)   ...       0.14 
freq.     510.80  E(vib)   ...       0.14 
freq.     522.87  E(vib)   ...       0.13 
freq.     525.60  E(vib)   ...       0.13 
freq.     562.89  E(vib)   ...       0.11 
freq.     584.93  E(vib)   ...       0.11 
freq.     606.63  E(vib)   ...       0.10 
freq.     625.30  E(vib)   ...       0.09 
freq.     661.01  E(vib)   ...       0.08 
freq.     703.55  E(vib)   ...       0.07 
freq.     732.43  E(vib)   ...       0.06 
freq.     742.65  E(vib)   ...       0.06 
freq.     746.55  E(vib)   ...       0.06 
freq.     776.47  E(vib)   ...       0.05 
freq.     804.28  E(vib)   ...       0.05 
freq.     828.20  E(vib)   ...       0.04 
freq.     837.60  E(vib)   ...       0.04 
freq.     864.31  E(vib)   ...       0.04 
freq.     871.19  E(vib)   ...       0.04 
freq.     884.22  E(vib)   ...       0.04 
freq.     927.21  E(vib)   ...       0.03 
freq.     971.08  E(vib)   ...       0.03 
freq.     976.93  E(vib)   ...       0.03 
freq.     984.11  E(vib)   ...       0.02 
freq.     991.45  E(vib)   ...       0.02 
freq.    1004.11  E(vib)   ...       0.02 
freq.    1031.98  E(vib)   ...       0.02 
freq.    1046.48  E(vib)   ...       0.02 
freq.    1075.70  E(vib)   ...       0.02 
freq.    1083.98  E(vib)   ...       0.02 
freq.    1109.71  E(vib)   ...       0.02 
freq.    1126.02  E(vib)   ...       0.01 
freq.    1148.33  E(vib)   ...       0.01 
freq.    1161.86  E(vib)   ...       0.01 
freq.    1172.09  E(vib)   ...       0.01 
freq.    1177.17  E(vib)   ...       0.01 
freq.    1186.92  E(vib)   ...       0.01 
freq.    1218.13  E(vib)   ...       0.01 
freq.    1223.93  E(vib)   ...       0.01 
freq.    1254.88  E(vib)   ...       0.01 
freq.    1271.20  E(vib)   ...       0.01 
freq.    1277.80  E(vib)   ...       0.01 
freq.    1322.74  E(vib)   ...       0.01 
freq.    1340.98  E(vib)   ...       0.01 
freq.    1354.01  E(vib)   ...       0.01 
freq.    1410.03  E(vib)   ...       0.00 
freq.    1415.65  E(vib)   ...       0.00 
freq.    1436.71  E(vib)   ...       0.00 
freq.    1452.00  E(vib)   ...       0.00 
freq.    1456.52  E(vib)   ...       0.00 
freq.    1462.08  E(vib)   ...       0.00 
freq.    1476.08  E(vib)   ...       0.00 
freq.    1478.95  E(vib)   ...       0.00 
freq.    1485.65  E(vib)   ...       0.00 
freq.    1491.45  E(vib)   ...       0.00 
freq.    1522.81  E(vib)   ...       0.00 
freq.    1531.99  E(vib)   ...       0.00 
freq.    1545.42  E(vib)   ...       0.00 
freq.    1598.27  E(vib)   ...       0.00 
freq.    1630.76  E(vib)   ...       0.00 
freq.    1644.75  E(vib)   ...       0.00 
freq.    1659.38  E(vib)   ...       0.00 
freq.    1704.20  E(vib)   ...       0.00 
freq.    3023.29  E(vib)   ...       0.00 
freq.    3027.22  E(vib)   ...       0.00 
freq.    3077.69  E(vib)   ...       0.00 
freq.    3085.47  E(vib)   ...       0.00 
freq.    3149.45  E(vib)   ...       0.00 
freq.    3169.66  E(vib)   ...       0.00 
freq.    3173.78  E(vib)   ...       0.00 
freq.    3176.59  E(vib)   ...       0.00 
freq.    3179.22  E(vib)   ...       0.00 
freq.    3180.75  E(vib)   ...       0.00 
freq.    3189.52  E(vib)   ...       0.00 
freq.    3192.66  E(vib)   ...       0.00 
freq.    3203.25  E(vib)   ...       0.00 
freq.    3203.51  E(vib)   ...       0.00 

------------
INNER ENERGY
------------

The inner energy is: U= E(el) + E(ZPE) + E(vib) + E(rot) + E(trans)
    E(el)   - is the total energy from the electronic structure calculation
              = E(kin-el) + E(nuc-el) + E(el-el) + E(nuc-nuc)
    E(ZPE)  - the the zero temperature vibrational energy from the frequency calculation
    E(vib)  - the the finite temperature correction to E(ZPE) due to population
              of excited vibrational states
    E(rot)  - is the rotational thermal energy
    E(trans)- is the translational thermal energy

Summary of contributions to the inner energy U:
Electronic energy                ...   -878.44052796 Eh
Zero point energy                ...      0.26837420 Eh     168.41 kcal/mol
Thermal vibrational correction   ...      0.01408825 Eh       8.84 kcal/mol
Thermal rotational correction    ...      0.00141627 Eh       0.89 kcal/mol
Thermal translational correction ...      0.00141627 Eh       0.89 kcal/mol
-----------------------------------------------------------------------
Total thermal energy                   -878.15523297 Eh


Summary of corrections to the electronic energy:
(perhaps to be used in another calculation)
Total thermal correction                  0.01692079 Eh      10.62 kcal/mol
Non-thermal (ZPE) correction              0.26837420 Eh     168.41 kcal/mol
-----------------------------------------------------------------------
Total correction                          0.28529500 Eh     179.02 kcal/mol


--------
ENTHALPY
--------

The enthalpy is H = U + kB*T
                kB is Boltzmann's constant
Total thermal energy              ...   -878.15523297 Eh 
Thermal Enthalpy correction       ...      0.00094421 Eh       0.59 kcal/mol
-----------------------------------------------------------------------
Total Enthalpy                    ...   -878.15428876 Eh


Note: Only C1 symmetry has been detected, increase convergence thresholds 
      if your molecule has a higher symmetry. Symmetry factor of 1.0 is   
      used for the rotational entropy correction. 
 

Note: Rotational entropy computed according to Herzberg 
Infrared and Raman Spectra, Chapter V,1, Van Nostrand Reinhold, 1945 
Point Group:  C1, Symmetry Number:   1  
Rotational constants in cm-1:     0.016229     0.010881     0.007096 

Vibrational entropy computed according to the QRRHO of S. Grimme
Chem.Eur.J. 2012 18 9955 using a reference frequency of 100.0 cm-1


-------
ENTROPY
-------

The entropy contributions are T*S = T*(S(el)+S(vib)+S(rot)+S(trans))
     S(el)   - electronic entropy
     S(vib)  - vibrational entropy
     S(rot)  - rotational entropy
     S(trans)- translational entropy
The entropies will be listed as multiplied by the temperature to get
units of energy

Electronic entropy                ...      0.00000000 Eh      0.00 kcal/mol
Vibrational entropy               ...      0.02482668 Eh     15.58 kcal/mol
Rotational entropy                ...      0.01592646 Eh      9.99 kcal/mol
Translational entropy             ...      0.02025841 Eh     12.71 kcal/mol
-----------------------------------------------------------------------
Final entropy term                ...      0.06101155 Eh     38.29 kcal/mol

In case the symmetry of your molecule has not been determined correctly
or in case you have a reason to use a different symmetry number we print 
out the resulting rotational entropy values for sn=1,12:

 non-linear molecules -----------------------------------
|  sn= 1 | S(rot)=       0.01592646 Eh      9.99 kcal/mol|
|  sn= 2 | S(rot)=       0.01527200 Eh      9.58 kcal/mol|
|  sn= 3 | S(rot)=       0.01488917 Eh      9.34 kcal/mol|
|  sn= 4 | S(rot)=       0.01461755 Eh      9.17 kcal/mol|
|  sn= 5 | S(rot)=       0.01440686 Eh      9.04 kcal/mol|
|  sn= 6 | S(rot)=       0.01423471 Eh      8.93 kcal/mol|
|  sn= 7 | S(rot)=       0.01408917 Eh      8.84 kcal/mol|
|  sn= 8 | S(rot)=       0.01396309 Eh      8.76 kcal/mol|
|  sn= 9 | S(rot)=       0.01385188 Eh      8.69 kcal/mol|
|  sn=10 | S(rot)=       0.01375240 Eh      8.63 kcal/mol|
|  sn=11 | S(rot)=       0.01366241 Eh      8.57 kcal/mol|
|  sn=12 | S(rot)=       0.01358026 Eh      8.52 kcal/mol|
 linear molecules ---------------------------------------
|  Dinfh | S(rot)=       0.00999776 Eh      6.27 kcal/mol|
|  Cinfv | S(rot)=       0.01065222 Eh      6.68 kcal/mol|
 --------------------------------------------------------


-------------------
GIBBS FREE ENERGY
-------------------

The Gibbs free energy is G = H - T*S

Total enthalpy                    ...   -878.15428876 Eh 
Total entropy correction          ...     -0.06101155 Eh    -38.29 kcal/mol
-----------------------------------------------------------------------
Final Gibbs free energy         ...   -878.21530031 Eh

For completeness - the Gibbs free energy minus the electronic energy
G-E(el)                           ...      0.22522765 Eh    141.33 kcal/mol


Maximum memory used throughout the entire PROP-calculation: 337.2 MB

--------------------------------
SUGGESTED CITATIONS FOR THIS RUN
--------------------------------

Below you find a list of papers that are relevant to this ORCA run
We neither can nor want to force you to cite these papers, but we appreciate if you do
You receive ORCA, which is the product of decades of hard work by many enthusiastic individuals, for free
The only thing we kindly ask in return is that you cite our papers,
We deeply appreciate it, if you show your appreciation for ORCA by not just citing the generic ORCA reference.

Please note that relegating all ORCA citations to the supporting information does *not* help us.
SI sections are not indexed - citations you put there will not count into any citation statistics
But we need these citations in order to attract the funding resources that allow us to do what we are doing

Therefore, if you are a happy ORCA user, please consider citing a few of the papers listed below in the main body of your paper

In addition to the list printed below, the program has created the file hbq-gs.bibtex that contains the list in bibtex format
You can import this file easily into all common literature databanks and citation aid programs


List of essential papers. We consider these as the minimum necessary citations

  1. Neese,F.
     Software update: the ORCA program system, version 5.0
     WIRES Comput. Molec. Sci., 2022 12(1)e1606
     doi.org/10.1002/wcms.1606

List of papers to cite with high priority. The work reported in these papers was absolutely
necessary for this run to complete.
Our perspective: the developers of density functionals and basis sets usually get cited in chemistry papers
Good! But without the algorithms to do something with them, the functionals or basis sets would not do anything.
Hence, in our opinion, the algorithm design and method developments papers are equally worthy of getting cited

  1. Neese,F.
     An improvement of the resolution of the identity approximation for the formation of the Coulomb matrix
     J. Comp. Chem., 2003 24(14)1740-1747
     doi.org/10.1002/jcc.10318
  2. Neese,F.; Wennmohs,F.; Hansen,A.; Becker,U.
     Efficient, approximate and parallel Hartree-Fock and hybrid DFT calculations. A 'chain-of-spheres' algorithm for the Hartree-Fock exchange
     Chem. Phys., 2009 356(1-3)98-109
     doi.org/10.1016/j.chemphys.2008.10.036
  3. Bykov,D.; Petrenko,T.; Izsak,R.; Kossmann,S.; Becker,U.; Valeev,E.; Neese,F.
     Efficient implementation of the analytic second derivatives of Hartree-Fock and hybrid DFT energies: a detailed analysis of different approximations
     Molec. Phys., 2015 113 1961-1977
     doi.org/10.1080/00268976.2015.1025114
  4. Garcia-Rates,M.; Neese,F.
     Efficient implementation of the analytical second derivatives of hartree-fock and hybrid DFT energies within the framework of the conductor-like polarizable continuum model
     J. Comput. Chem., 2019 40 1816-1828
     doi.org/10.1002/jcc.25833
  5. Garcia-Rates,M.; Neese,F.
     Effect of the Solute Cavity on the Solvation Energy and its Derivatives within the Framework of the Gaussian Charge Scheme
     J. Comput. Chem., 2020 41 922-939
     doi.org/10.1002/jcc.26139
  6. Helmich-Paris,B.; de Souza,B.; Neese,F.; Izsák,R.
     An improved chain of spheres for exchange algorithm
     J. Chem. Phys., 2021 155 104109
     doi.org/doi: 10.1063/5.0058766.
  7. Neese,F.
     The SHARK Integral Generation and Digestion System
     J. Comp. Chem., 2022  1-16
     doi.org/10.1002/jcc.26942

List of suggested additional citations. These are papers that are important in the 'surrounding' of 
of this run, or papers that preceded the highly important papers. If you like your results we are grateful for a citation.

  1. Izsak,R.; Neese,F.
     An overlap fitted chain of spheres exchange method
     J. Chem. Phys., 2011 135 144105
     doi.org/10.1063/1.3646921
  2. Izsak,R.; Hansen,A.; Neese,F.
     The resolution of identity and chain of spheres approximations for the LPNO-CCSD singles Fock term
     Molec. Phys., 2012 110 2413-2417
     doi.org/10.1080/00268976.2012.687466
  3. Neese,F.
     The ORCA program system
     WIRES Comput. Molec. Sci., 2012 2(1)73-78
     doi.org/10.1002/wcms.81
  4. Izsak,R.; Neese,F.; Klopper,W.
     Robust fitting techniques in the chain of spheres approximation to the Fock exchange: The role of the complementary space
     J. Chem. Phys., 2013 139 
     doi.org/10.1063/1.4819264
  5. Neese,F.
     Software update: the ORCA program system, version 4.0
     WIRES Comput. Molec. Sci., 2018 8(1)1-6
     doi.org/10.1002/wcms.1327
  6. Neese,F.; Wennmohs,F.; Becker,U.; Riplinger,C.
     The ORCA quantum chemistry program package
     J. Chem. Phys., 2020 152 Art. No. L224108
     doi.org/10.1063/5.0004608

List of optional additional citations

  1. Neese,F.
     Approximate second-order SCF convergence for spin unrestricted wavefunctions
     Chem. Phys. Lett., 2000 325(1-3)93-98
     doi.org/10.1016/s0009-2614(00)00662-x

Timings for individual modules:

Sum of individual times          ...    14156.128 sec (= 235.935 min)
Startup calculation              ...      246.317 sec (=   4.105 min)   1.7 %
SCF iterations                   ...     5453.954 sec (=  90.899 min)  38.5 %
Property integrals               ...     1200.880 sec (=  20.015 min)   8.5 %
SCF Response                     ...     1741.754 sec (=  29.029 min)  12.3 %
Property calculations            ...     1415.775 sec (=  23.596 min)  10.0 %
SCF Gradient evaluation          ...     4095.796 sec (=  68.263 min)  28.9 %
Geometry relaxation              ...        1.651 sec (=   0.028 min)   0.0 %
                             ****ORCA TERMINATED NORMALLY****
TOTAL RUN TIME: 0 days 3 hours 56 minutes 2 seconds 644 msec
