
                                 *****************
                                 * O   R   C   A *
                                 *****************

                                            #,                                       
                                            ###                                      
                                            ####                                     
                                            #####                                    
                                            ######                                   
                                           ########,                                 
                                     ,,################,,,,,                         
                               ,,#################################,,                 
                          ,,##########################################,,             
                       ,#########################################, ''#####,          
                    ,#############################################,,   '####,        
                  ,##################################################,,,,####,       
                ,###########''''           ''''###############################       
              ,#####''   ,,,,##########,,,,          '''####'''          '####       
            ,##' ,,,,###########################,,,                        '##       
           ' ,,###''''                  '''############,,,                           
         ,,##''                                '''############,,,,        ,,,,,,###''
      ,#''                                            '''#######################'''  
     '                                                          ''''####''''         
             ,#######,   #######,   ,#######,      ##                                
            ,#'     '#,  ##    ##  ,#'     '#,    #''#        ,####,   ,####,        
            ##       ##  ##   ,#'  ##            #'  '#       #'       #'  '#        
            ##       ##  #######   ##           ,######,      #####,   #    #        
            '#,     ,#'  ##    ##  '#,     ,#' ,#      #,     #,   #   #,  ,#        
             '#######'   ##     ##  '#######'  #'      '#     '####' # '####'        



                #########################################################
                #                        -***-                          #
                #          Department of theory and spectroscopy        #
                #                                                       #
                #                      Frank Neese                      #
                #                                                       #
                #     Directorship, Architecture, Infrastructure        #
                #                    SHARK, DRIVERS                     #
                #        Core code/Algorithms in most modules           #
                #                                                       #
                #        Max Planck Institute fuer Kohlenforschung      #
                #                Kaiser Wilhelm Platz 1                 #
                #                 D-45470 Muelheim/Ruhr                 #
                #                      Germany                          #
                #                                                       #
                #                  All rights reserved                  #
                #                        -***-                          #
                #########################################################


                         Program Version 6.0.1  -  RELEASE   -


 With contributions from (in alphabetic order):
[Max-Planck-Institut fuer Kohlenforschung]                               
  Daniel Aravena         : Magnetic Suceptibility                        
  Michael Atanasov       : Ab Initio Ligand Field Theory (pilot matlab implementation)
  Alexander A. Auer      : GIAO ZORA, VPT2 properties, NMR spectrum      
  Ute Becker             : All parallelization in ORCA, NUMFREQ, NUMCALC 
  Giovanni Bistoni       : ED, misc. LED, open-shell LED, HFLD           
  Martin Brehm           : Molecular dynamics                            
  Dmytro Bykov           : pre 5.0 version of the SCF Hessian            
  Marcos Casanova-Páez   : Triplet and SCS-CIS(D). UHF-(DLPNO)-IP/EA/STEOM-CCSD. UHF-CVS-IP/STEOM-CCSD   
  Vijay G. Chilkuri      : MRCI spin determinant printing, contributions to CSF-ICE 
  Pauline Colinet        : FMM embedding                                 
  Dipayan Datta          : RHF DLPNO-CCSD density                        
  Achintya Kumar Dutta   : EOM-CC, STEOM-CC                              
  Nicolas Foglia         : Exact transition moments, OPA infrastructure, MCD improvements    
  Dmitry Ganyushin       : Spin-Orbit,Spin-Spin,Magnetic field MRCI      
  Miquel Garcia-Rates    : C-PCM and meta-GGA Hessian, CCSD/C-PCM, Gaussian charge scheme 
  Tiago L. C. Gouveia    : GS-ROHF, GS-ROCIS                             
  Yang Guo               : DLPNO-NEVPT2, F12-NEVPT2, CIM, IAO-localization        
  Andreas Hansen         : Spin unrestricted coupled pair/coupled cluster methods 
  Ingolf Harden          : AUTO-CI MPn and infrastructure                
  Benjamin Helmich-Paris : MC-RPA, TRAH-(SCF,CASSCF), AVAS, COSX integrals, SCF dyn. polar. 
  Lee Huntington         : MR-EOM, pCC                                   
  Robert Izsak           : Overlap fitted RIJCOSX, COSX-SCS-MP3, EOM     
  Riya Kayal             : Wick's Theorem for AUTO-CI, AUTO-CI UHF-CCSDT 
  Emily Kempfer          : AUTO-CI, RHF CISDT and CCSDT                  
  Christian Kollmar      : KDIIS, OOCD, Brueckner-CCSD(T), CCSD density, CASPT2, CASPT2-K, improved NEVPT2 
  Axel Koslowski         : Symmetry handling                             
  Simone Kossmann        : meta-GGA functionals, TD-DFT gradient, OOMP2, (MP2 Hessian; deprecated post 5.0) 
  Lucas Lang             : DCDCAS                                        
  Marvin Lechner         : AUTO-CI (C++ implementation), FIC-MRCC        
  Spencer Leger          : CASSCF response                               
  Dagmar Lenk            : GEPOL surface, SMD, ORCA-2-JSON               
  Dimitrios Liakos       : Extrapolation schemes; Compound Job, initial MDCI parallelization 
  Dimitrios Manganas     : Further ROCIS development; embedding schemes. LFT, Crystal Embedding 
  Dimitrios Pantazis     : SARC Basis sets                               
  Anastasios Papadopoulos: AUTO-CI, single reference methods and gradients 
  Taras Petrenko         : pre 6.0 DFT Hessian and TD-DFT gradient, (ASA, deprecated), ECA, 1-Electron XAS/XES, NRVS 
  Peter Pinski           : DLPNO-MP2, DLPNO-MP2 Gradient                 
  Christoph Reimann      : Effective Core Potentials                     
  Marius Retegan         : Local ZFS, SOC                                
  Christoph Riplinger    : Optimizer, TS searches, QM/MM, DLPNO-CCSD(T), (RO)-DLPNO pert. Triples 
  Michael Roemelt        : Original ROCIS implementation                 
  Masaaki Saitow         : Open-shell DLPNO-CCSD energy and density      
  Barbara Sandhoefer     : DKH picture change effects                    
  Kantharuban Sivalingam : CASSCF convergence/infrastructure, NEVPT2 and variants, FIC-MRCI 
  Bernardo de Souza      : ESD, SOC TD-DFT                               
  Georgi L. Stoychev     : AutoAux, RI-MP2 NMR, DLPNO-MP2 response, X2C  
  Van Anh Tran           : RI-MP2 g-tensors                              
  Willem Van den Heuvel  : Paramagnetic NMR                              
  Zikuan Wang            : NOTCH, Electric field optimization            
  Frank Wennmohs         : Technical directorship and infrastructure     
  Hang Xu                : AUTO-CI-Response properties                   
                                                                         
[FACCTs GmbH]                                                            
  Markus Bursch, Miquel Garcia-Rates, Christoph Riplinger, Bernardo de Souza, Georgi L. Stoychev 
                                                                 
  APM, Basis sets (HGBS, AHGBS, def-TZVP (Ac-Lr), def2-XVPD (La-Lu)), CI-OPT, improved COSX, DLPNO-Multilevel,           
  DOCKER, DRACO, updates on ESD, GOAT, IRC, LR-CPCM, MBIS, meta-GGA TD-DFT gradient, ML-optimized integration grids, 
  MM, NACMEs, nearIR, NEB, NEB-TS, NL-DFT gradient (VV10), 2- and 3-layer-ONIOM, interface openCOSMO-RS, QMMM,   
  Crystal-QMMM, SF, symmetry and pop. for TD-DFT, r2SCAN hybrids, SOLVATOR                                   
                                                                         
[Other institutions]                                                     
  V. Asgeirsson          : NEB                                           
  Christoph Bannwarth    : sTDA-DFT, sTD-DFT, PBEh-3c, B97-3c, D3        
  Sebastian Ehlert       : rSCAN, r2SCAN, r2SCAN-3c, D4, dhf basis sets  
  Marvin Friede          : D4 for Fr, Ra, Ac-Lr                          
  Lars Goerigk           : TD-DFT with DH, B97 family of functionals     
  Stefan Grimme          : VdW corrections, initial TS optimization, DFT functionals, gCP, sTDA/sTD-DF 
  Waldemar Hujo          : DFT-NL                                        
  H. Jonsson             : NEB                                           
  Holger Kruse           : gCP                                           
  Marcel Mueller         : wB97X-3c, vDZP basis set                      
  Hagen Neugebauer       : wr2SCAN                                       
  Tobias Risthaus        : range-separated hybrid DFT                    
  Lukas Wittmann         : regularized MP2, r2SCAN double-hybrids, wr2SCAN        
                                                                         
We gratefully acknowledge several colleagues who have allowed us to      
interface, adapt or use parts of their codes:                            
  Ed Valeev, F. Pavosevic, A. Kumar             : LibInt (2-el integral package), F12 methods 
  Garnet Chan, S. Sharma, J. Yang, R. Olivares  : DMRG                   
  Ulf Ekstrom                                   : XCFun DFT Library      
  Mihaly Kallay                                 : mrcc  (arbitrary order and MRCC methods)
  Frank Weinhold                                : gennbo (NPA and NBO analysis)           
  Simon Mueller                                 : openCOSMO-RS                            
  Christopher J. Cramer and Donald G. Truhlar   : smd solvation model                     
  S Lehtola, MJT Oliveira, MAL Marques          : LibXC Library                           
  Liviu Ungur et al                             : ANISO software                          


 Your calculation uses the libint2 library for the computation of 2-el integrals
 For citations please refer to: http://libint.valeyev.net

 Your ORCA version has been built with support for libXC version: 6.2.2
 For citations please refer to: https://libxc.gitlab.io

 This ORCA versions uses:
   CBLAS   interface :  Fast vector & matrix operations
   LAPACKE interface :  Fast linear algebra routines
   SCALAPACK package :  Parallel linear algebra routines
   Shared memory     :  Shared parallel matrices
   BLAS/LAPACK       :  OpenBLAS 0.3.27  USE64BITINT DYNAMIC_ARCH NO_AFFINITY Cooperlake SINGLE_THREADED
        Core in use  :  Cooperlake
   Copyright (c) 2011-2014, The OpenBLAS Project


Warning: RI is on but no J-basis has been assigned. Assigning Def2/J (nothing to worry about!)
================================================================================

----- Orbital basis set information -----
Your calculation utilizes the basis: 6-311G*
   H, Li - Ne  : R. Krishnan, J. S. Binkley, R. Seeger and J. A. Pople, J. Chem. Phys. 72, 650 (1980).
   Na - Ar     : A. D. McLean and G. S. Chandler J. Chem. Phys. 72, 5639, (1980).
   K  - Ca     : J.-P. Blaudeau, M. P. McGrath, L. A. Curtiss and L. Radom, J. Chem. Phys. 107, 5016 (1997).
   Ga - Kr     : L. A. Curtiss, M. P. McGrath, J.-P. Blandeau, N. E. Davis, R. C. Binning and L. Radom, J. Chem. Phys. 103, 6104 (1995).
   Pol./Diff.
   H, Li - Cl  : T. Clark, J. Chandrasekhar and P. v. R. Schleyer, J. Comp. Chem. 4, 294 (1983).
   H - Ne      : M. J. Frisch, J. A. Pople and J. S. Binkley, J. Chem. Phys. 80, 3265 (1984).

----- AuxJ basis set information -----
Your calculation utilizes the auxiliary basis: def2/J
   F. Weigend, Phys. Chem. Chem. Phys. 8, 1057 (2006).

================================================================================
                                        WARNINGS
                       Please study these warnings very carefully!
================================================================================

INFO   : Checking CIS options ...

WARNING: (CIS/TDDFT): Analytic excited state gradients requested
  ===> : turning on equilibrium dielectric conditions.

WARNING: Analytical Frequencies for this method not available!
  ===> : Switching to Numerical Frequencies!

WARNING: Geometry Optimization
  ===> : Switching off AutoStart
         For restart on a previous wavefunction, please use MOREAD

WARNING: CIS/ROCIS methods need fully converged wavefunctions
  ===> : Setting SCFConvForced true
         You can overwrite this default with %scf ConvForced false 


================================================================================
                                       INPUT FILE
================================================================================
NAME = 2.inp
|  1> ! B3LYP/G OPT FREQ 6-311G* CPCM(Water)
|  2> 
|  3> %tddft
|  4>     NRoots 3
|  5>     IRoot 1
|  6> end 
|  7> 
|  8> * xyz 0 1 
|  9> C  -3.32365374716909123265 -1.11365992868202678956 -0.29579280493737891700
| 10> C  -2.73100605397555717957 -2.04803208649721302237 -1.14192066097935374103
| 11> C  -1.39731054639361640390 -1.94640037175689850635 -1.44465202399028180835
| 12> C  -2.56997069022985957787 -0.10897358942557100470 0.27217364817070549554
| 13> C  -1.18385026394702075336 -0.01369459150276597370 0.03135928380969121854
| 14> O  -3.23151576501365145333 0.77962196368617053821 1.10385307299340795772
| 15> C  -0.60780231915016735833 -0.93416149823513205952 -0.87771888863533209513
| 16> C  0.77094100825023992307 -0.81866148882811917709 -1.22130318539036464287
| 17> C  1.54747578004928887374 0.15890784721389228373 -0.70298254105704260919
| 18> C  -0.33443610725806482975 0.96881449863902591169 0.65397622581930980878
| 19> C  1.02005613814571538533 1.07153865898840350290 0.25183299975767958756
| 20> N  -0.83444221810779872772 1.75480015841730363491 1.61946968802906043905
| 21> C  -0.07265645611633742007 2.67611154763844805160 2.15809700192975650879
| 22> C  1.25626987849212912174 2.89691865606340748229 1.79141633681890244389
| 23> C  1.80701258760537730730 2.07419946950326838930 0.83968346597750309623
| 24> C  -3.14281386458764355751 2.10409984826589102624 0.80321945194364086085
| 25> O  -2.79282218350195154954 2.51675446700074711970 -0.29596640711595123552
| 26> N  -3.60647735529621726869 2.86479640803472435096 1.79689761872072129023
| 27> C  -3.93132305291366712652 2.29169465154733886791 3.08687706558590502226
| 28> C  -3.61144698060591640143 4.30427245089342136453 1.67225927788310380073
| 29> H  -2.91051400839943941179 4.74753841112418228931 2.38073272599095586699
| 30> H  -4.61423606336616209944 4.68738022853357616526 1.86073792598428067180
| 31> H  -3.30758757323073382395 4.56220640005665689642 0.65964840310110450794
| 32> H  -3.04841551410247291187 1.82142023996747304260 3.52233935184176782940
| 33> H  -4.70792474207601419067 1.53527496523847251098 2.97839099361839876323
| 34> H  -4.28507529862943492560 3.08707565925087612513 3.73476590360136029290
| 35> H  -0.93466644080681815510 -2.64181090566567533529 -2.12755461965540737523
| 36> H  -4.37933576912085520405 -1.15237476641601932492 -0.07785697747104547428
| 37> H  -3.33482816550597771510 -2.83064821490685947225 -1.57269036677572549010
| 38> H  1.17466383604368007632 -1.52987969002031021226 -1.92555225416674380412
| 39> H  2.58456507065892449049 0.26144821638791604368 -0.98533307790676449844
| 40> H  -0.54354017163546941571 3.26927379146543906074 2.93036199153904997061
| 41> H  1.82638524778605515486 3.68265057824583053048 2.25950791868594258460
| 42> H  2.83844181143285467783 2.17932801763253669591 0.53610345059824060510
| 43> *
| 44> 
| 45>                          ****END OF INPUT****
================================================================================

                       *****************************
                       * Geometry Optimization Run *
                       *****************************

Geometry optimization settings:
Update method            Update   .... BFGS
Choice of coordinates    CoordSys .... (2022) Redundant Internals
Initial Hessian          InHess   .... Almloef's Model
Max. no of cycles        MaxIter  .... 102

Convergence Tolerances:
Energy Change            TolE     ....  5.0000e-06 Eh
Max. Gradient            TolMAXG  ....  3.0000e-04 Eh/bohr
RMS Gradient             TolRMSG  ....  1.0000e-04 Eh/bohr
Max. Displacement        TolMAXD  ....  4.0000e-03 bohr
RMS Displacement         TolRMSD  ....  2.0000e-03 bohr
Strict Convergence                .... False

------------------------------------------------------------------------------
                        ORCA OPTIMIZATION COORDINATE SETUP
------------------------------------------------------------------------------

The optimization will be done in redundant internal coordinates (2022)
Making redundant internal coordinates   ...  (2022 redundants) done
Evaluating the initial hessian          ...  (Almloef) done
Evaluating the coordinates              ...  done
Calculating the B-matrix                .... done
Calculating the G-matrix                .... done
Diagonalizing the G-matrix              .... done
Small eigenvalue found = 5.793e-03
Small eigenvalue found = 1.262e-02
Small eigenvalue found = 2.424e-02
The first mode is                       ....   78
The number of degrees of freedom        ....   96

    -----------------------------------------------------------------
                    Redundant Internal Coordinates


    -----------------------------------------------------------------
         Definition                    Initial Value    Approx d2E/dq
    -----------------------------------------------------------------
      1. B(C   1,C   0)                  1.3929         0.618139   
      2. B(C   2,C   1)                  1.3714         0.668998   
      3. B(C   3,C   0)                  1.3784         0.651969   
      4. B(C   4,C   3)                  1.4101         0.580310   
      5. B(O   5,C   3)                  1.3853         0.569435   
      6. B(C   6,C   4)                  1.4162         0.567544   
      7. B(C   6,C   2)                  1.4033         0.594915   
      8. B(C   7,C   6)                  1.4256         0.548211   
      9. B(C   8,C   7)                  1.3518         0.718984   
     10. B(C   9,C   4)                  1.4403         0.519373   
     11. B(C  10,C   9)                  1.4167         0.566509   
     12. B(C  10,C   8)                  1.4222         0.555031   
     13. B(N  11,C   9)                  1.3416         0.668428   
     14. B(C  12,N  11)                  1.3112         0.747467   
     15. B(C  13,C  12)                  1.3962         0.610822   
     16. B(C  14,C  13)                  1.3733         0.664304   
     17. B(C  14,C  10)                  1.4036         0.594267   
     18. B(C  15,O   5)                  1.3611         0.622363   
     19. B(O  16,C  15)                  1.2251         1.025384   
     20. B(N  17,C  15)                  1.3346         0.686014   
     21. B(C  18,N  17)                  1.4485         0.451457   
     22. B(C  19,N  17)                  1.4449         0.457439   
     23. B(H  20,C  19)                  1.0907         0.359115   
     24. B(H  21,C  19)                  1.0899         0.360232   
     25. B(H  22,C  19)                  1.0882         0.362451   
     26. B(H  23,C  18)                  1.0910         0.358761   
     27. B(H  24,C  18)                  1.0895         0.360738   
     28. B(H  25,C  18)                  1.0851         0.366585   
     29. B(H  26,C   2)                  1.0789         0.375109   
     30. B(H  27,C   0)                  1.0786         0.375449   
     31. B(H  28,C   1)                  1.0783         0.375966   
     32. B(H  29,C   7)                  1.0793         0.374599   
     33. B(H  30,C   8)                  1.0797         0.373962   
     34. B(H  31,C  12)                  1.0816         0.371318   
     35. B(H  32,H  20)                  4.8566         0.000000   
     36. B(H  32,C  13)                  1.0777         0.376694   
     37. B(H  33,C  14)                  1.0803         0.373156   
     38. A(C   1,C   0,C   3)          120.4368         0.437778   
     39. A(C   3,C   0,H  27)          118.5580         0.358463   
     40. A(C   1,C   0,H  27)          121.0025         0.355233   
     41. A(C   2,C   1,H  28)          120.6772         0.360125   
     42. A(C   0,C   1,C   2)          119.8782         0.439819   
     43. A(C   0,C   1,H  28)          119.4256         0.355316   
     44. A(C   1,C   2,H  26)          120.5965         0.359985   
     45. A(C   1,C   2,C   6)          120.7573         0.436792   
     46. A(C   6,C   2,H  26)          118.6457         0.352881   
     47. A(C   4,C   3,O   5)          121.9127         0.419711   
     48. A(C   0,C   3,C   4)          121.0882         0.432828   
     49. A(C   0,C   3,O   5)          116.9884         0.428542   
     50. A(C   3,C   4,C   9)          123.5031         0.415581   
     51. A(C   3,C   4,C   6)          117.7463         0.422204   
     52. A(C   6,C   4,C   9)          118.7499         0.413941   
     53. A(C   3,O   5,C  15)          117.4186         0.422224   
     54. A(C   4,C   6,C   7)          119.6995         0.417940   
     55. A(C   2,C   6,C   7)          120.3430         0.421465   
     56. A(C   2,C   6,C   4)          119.9549         0.424083   
     57. A(C   6,C   7,H  29)          117.7529         0.347963   
     58. A(C   6,C   7,C   8)          121.4499         0.436029   
     59. A(C   8,C   7,H  29)          120.7891         0.364356   
     60. A(C   7,C   8,H  30)          121.3446         0.364250   
     61. A(C  10,C   8,H  30)          118.0874         0.348589   
     62. A(C   7,C   8,C  10)          120.5601         0.437001   
     63. A(C   4,C   9,C  10)          119.3813         0.413807   
     64. A(C  10,C   9,N  11)          121.2073         0.430065   
     65. A(C   4,C   9,N  11)          119.4021         0.423425   
     66. A(C   9,C  10,C  14)          117.9671         0.423862   
     67. A(C   8,C  10,C  14)          122.1157         0.422314   
     68. A(C   8,C  10,C   9)          119.9082         0.418725   
     69. A(C   9,N  11,C  12)          119.3892         0.449161   
     70. A(N  11,C  12,H  31)          115.1942         0.363954   
     71. A(N  11,C  12,C  13)          123.7964         0.444817   
     72. A(C  13,C  12,H  31)          121.0081         0.353852   
     73. A(C  12,C  13,H  32)          120.3149         0.354715   
     74. A(C  12,C  13,C  14)          117.9686         0.438318   
     75. A(C  14,C  13,H  32)          121.7098         0.359811   
     76. A(C  10,C  14,H  33)          119.1511         0.352504   
     77. A(C  10,C  14,C  13)          119.5603         0.436152   
     78. A(C  13,C  14,H  33)          121.2879         0.359234   
     79. A(O  16,C  15,N  17)          125.1197         0.478157   
     80. A(O   5,C  15,N  17)          111.5660         0.436572   
     81. A(O   5,C  15,O  16)          122.9943         0.469674   
     82. A(C  18,N  17,C  19)          118.0499         0.383885   
     83. A(C  15,N  17,C  19)          120.3206         0.413176   
     84. A(C  15,N  17,C  18)          121.0310         0.412212   
     85. A(H  24,C  18,H  25)          109.6312         0.291738   
     86. A(H  23,C  18,H  25)          109.9654         0.291486   
     87. A(N  17,C  18,H  25)          108.3506         0.333589   
     88. A(H  23,C  18,H  24)          108.5005         0.290750   
     89. A(N  17,C  18,H  24)          110.2354         0.332700   
     90. A(N  17,C  18,H  23)          110.1527         0.332397   
     91. A(H  21,C  19,H  22)          109.5426         0.291154   
     92. A(H  20,C  19,H  22)          109.1863         0.291012   
     93. A(N  17,C  19,H  22)          108.3877         0.333690   
     94. A(H  20,C  19,H  21)          109.6384         0.290731   
     95. A(N  17,C  19,H  21)          109.7820         0.333350   
     96. A(N  17,C  19,H  20)          110.2813         0.333178   
     97. D(H  28,C   1,C   0,C   3)    179.6386         0.026430   
     98. D(C   2,C   1,C   0,C   3)     -1.9354         0.026430   
     99. D(H  28,C   1,C   0,H  27)     -0.9688         0.026430   
    100. D(C   2,C   1,C   0,H  27)    177.4571         0.026430   
    101. D(C   6,C   2,C   1,C   0)      2.0421         0.031294   
    102. D(H  26,C   2,C   1,C   0)   -177.7084         0.031294   
    103. D(C   6,C   2,C   1,H  28)   -179.5519         0.031294   
    104. D(H  26,C   2,C   1,H  28)      0.6975         0.031294   
    105. D(O   5,C   3,C   0,C   1)   -179.8930         0.029609   
    106. D(C   4,C   3,C   0,H  27)    179.5345         0.029609   
    107. D(C   4,C   3,C   0,C   1)     -1.0583         0.029609   
    108. D(O   5,C   3,C   0,H  27)      0.6998         0.029609   
    109. D(C   6,C   4,C   3,O   5)   -177.4181         0.023138   
    110. D(C   9,C   4,C   3,C   0)   -176.5010         0.023138   
    111. D(C   9,C   4,C   3,O   5)      2.2756         0.023138   
    112. D(C   6,C   4,C   3,C   0)      3.8053         0.023138   
    113. D(C  15,O   5,C   3,C   4)     56.9476         0.023534   
    114. D(C  15,O   5,C   3,C   0)   -124.2281         0.023534   
    115. D(C   7,C   6,C   4,C   9)     -3.9462         0.022088   
    116. D(C   7,C   6,C   4,C   3)    175.7625         0.022088   
    117. D(C   2,C   6,C   4,C   9)    176.6291         0.022088   
    118. D(C   2,C   6,C   4,C   3)     -3.6621         0.022088   
    119. D(C   7,C   6,C   2,H  26)      1.1430         0.024377   
    120. D(C   7,C   6,C   2,C   1)   -178.6123         0.024377   
    121. D(C   4,C   6,C   2,H  26)   -179.4361         0.024377   
    122. D(C   4,C   6,C   2,C   1)      0.8086         0.024377   
    123. D(H  29,C   7,C   6,C   4)   -179.3202         0.020555   
    124. D(H  29,C   7,C   6,C   2)      0.1022         0.020555   
    125. D(C   8,C   7,C   6,C   4)     -0.3510         0.020555   
    126. D(C   8,C   7,C   6,C   2)    179.0714         0.020555   
    127. D(C  10,C   8,C   7,C   6)      2.7577         0.036577   
    128. D(H  30,C   8,C   7,H  29)      0.6560         0.036577   
    129. D(H  30,C   8,C   7,C   6)   -178.2820         0.036577   
    130. D(C  10,C   8,C   7,H  29)   -178.3042         0.036577   
    131. D(N  11,C   9,C   4,C   6)   -173.0627         0.018395   
    132. D(N  11,C   9,C   4,C   3)      7.2464         0.018395   
    133. D(C  10,C   9,C   4,C   6)      5.8407         0.018395   
    134. D(C  10,C   9,C   4,C   3)   -173.8502         0.018395   
    135. D(C  14,C  10,C   9,N  11)     -3.6076         0.022004   
    136. D(C  14,C  10,C   9,C   4)    177.5094         0.022004   
    137. D(C   8,C  10,C   9,N  11)    175.3217         0.022004   
    138. D(C   8,C  10,C   9,C   4)     -3.5613         0.022004   
    139. D(C  14,C  10,C   8,H  30)     -0.8703         0.021088   
    140. D(C  14,C  10,C   8,C   7)    178.1232         0.021088   
    141. D(C   9,C  10,C   8,H  30)   -179.7538         0.021088   
    142. D(C   9,C  10,C   8,C   7)     -0.7603         0.021088   
    143. D(C  12,N  11,C   9,C  10)      3.1535         0.033177   
    144. D(C  12,N  11,C   9,C   4)   -177.9638         0.033177   
    145. D(H  31,C  12,N  11,C   9)   -179.9000         0.042402   
    146. D(C  13,C  12,N  11,C   9)     -0.2953         0.042402   
    147. D(H  32,C  13,C  12,H  31)     -1.5154         0.025772   
    148. D(H  32,C  13,C  12,N  11)    178.9019         0.025772   
    149. D(C  14,C  13,C  12,H  31)    177.5609         0.025772   
    150. D(C  14,C  13,C  12,N  11)     -2.0218         0.025772   
    151. D(H  33,C  14,C  13,H  32)      0.7981         0.030823   
    152. D(H  33,C  14,C  13,C  12)   -178.2646         0.030823   
    153. D(C  10,C  14,C  13,H  32)   -179.5149         0.030823   
    154. D(C  10,C  14,C  13,C  12)      1.4224         0.030823   
    155. D(H  33,C  14,C  10,C   9)   -179.0817         0.024321   
    156. D(H  33,C  14,C  10,C   8)      2.0141         0.024321   
    157. D(C  13,C  14,C  10,C   9)      1.2246         0.024321   
    158. D(C  13,C  14,C  10,C   8)   -177.6796         0.024321   
    159. D(O  16,C  15,O   5,C   3)     17.5682         0.028434   
    160. D(N  17,C  15,O   5,C   3)   -168.6288         0.028434   
    161. D(C  19,N  17,C  15,O  16)     -5.8423         0.038790   
    162. D(C  19,N  17,C  15,O   5)   -179.4873         0.038790   
    163. D(C  18,N  17,C  15,O  16)   -176.7997         0.038790   
    164. D(C  18,N  17,C  15,O   5)      9.5553         0.038790   
    165. D(H  25,C  18,N  17,C  15)    179.9106         0.017388   
    166. D(H  24,C  18,N  17,C  19)    128.7220         0.017388   
    167. D(H  24,C  18,N  17,C  15)    -60.1210         0.017388   
    168. D(H  23,C  18,N  17,C  19)   -111.5736         0.017388   
    169. D(H  23,C  18,N  17,C  15)     59.5834         0.017388   
    170. D(H  22,C  19,N  17,C  15)      6.4267         0.017859   
    171. D(H  21,C  19,N  17,C  18)    -62.7358         0.017859   
    172. D(H  21,C  19,N  17,C  15)    126.0419         0.017859   
    173. D(H  20,C  19,N  17,C  18)     58.1734         0.017859   
    174. D(H  20,C  19,N  17,C  15)   -113.0489         0.017859   
    -----------------------------------------------------------------

Number of atoms                         .... 34
Number of degrees of freedom            .... 174


         *************************************************************
         *                GEOMETRY OPTIMIZATION CYCLE   1            *
         *************************************************************
---------------------------------
CARTESIAN COORDINATES (ANGSTROEM)
---------------------------------
  C     -3.323654   -1.113660   -0.295793
  C     -2.731006   -2.048032   -1.141921
  C     -1.397311   -1.946400   -1.444652
  C     -2.569971   -0.108974    0.272174
  C     -1.183850   -0.013695    0.031359
  O     -3.231516    0.779622    1.103853
  C     -0.607802   -0.934161   -0.877719
  C      0.770941   -0.818661   -1.221303
  C      1.547476    0.158908   -0.702983
  C     -0.334436    0.968814    0.653976
  C      1.020056    1.071539    0.251833
  N     -0.834442    1.754800    1.619470
  C     -0.072656    2.676112    2.158097
  C      1.256270    2.896919    1.791416
  C      1.807013    2.074199    0.839683
  C     -3.142814    2.104100    0.803219
  O     -2.792822    2.516754   -0.295966
  N     -3.606477    2.864796    1.796898
  C     -3.931323    2.291695    3.086877
  C     -3.611447    4.304272    1.672259
  H     -2.910514    4.747538    2.380733
  H     -4.614236    4.687380    1.860738
  H     -3.307588    4.562206    0.659648
  H     -3.048416    1.821420    3.522339
  H     -4.707925    1.535275    2.978391
  H     -4.285075    3.087076    3.734766
  H     -0.934666   -2.641811   -2.127555
  H     -4.379336   -1.152375   -0.077857
  H     -3.334828   -2.830648   -1.572690
  H      1.174664   -1.529880   -1.925552
  H      2.584565    0.261448   -0.985333
  H     -0.543540    3.269274    2.930362
  H      1.826385    3.682651    2.259508
  H      2.838442    2.179328    0.536103

----------------------------
CARTESIAN COORDINATES (A.U.)
----------------------------
  NO LB      ZA    FRAG     MASS         X           Y           Z
   0 C     6.0000    0    12.011   -6.280795   -2.104512   -0.558967
   1 C     6.0000    0    12.011   -5.160854   -3.870220   -2.157917
   2 C     6.0000    0    12.011   -2.640534   -3.678164   -2.729997
   3 C     6.0000    0    12.011   -4.856541   -0.205930    0.514334
   4 C     6.0000    0    12.011   -2.237153   -0.025879    0.059260
   5 O     8.0000    0    15.999   -6.106680    1.473272    2.085980
   6 C     6.0000    0    12.011   -1.148580   -1.765309   -1.658648
   7 C     6.0000    0    12.011    1.456867   -1.547046   -2.307929
   8 C     6.0000    0    12.011    2.924305    0.300292   -1.328444
   9 C     6.0000    0    12.011   -0.631993    1.830794    1.235836
  10 C     6.0000    0    12.011    1.927627    2.024915    0.475895
  11 N     7.0000    0    14.007   -1.576867    3.316092    3.060354
  12 C     6.0000    0    12.011   -0.137301    5.057118    4.078212
  13 C     6.0000    0    12.011    2.374006    5.474383    3.385286
  14 C     6.0000    0    12.011    3.414759    3.919669    1.586772
  15 C     6.0000    0    12.011   -5.939057    3.976172    1.517865
  16 O     8.0000    0    15.999   -5.277669    4.755977   -0.559295
  17 N     7.0000    0    14.007   -6.815255    5.413681    3.395644
  18 C     6.0000    0    12.011   -7.429124    4.330675    5.833352
  19 C     6.0000    0    12.011   -6.824646    8.133896    3.160112
  20 H     1.0000    0     1.008   -5.500074    8.971547    4.498933
  21 H     1.0000    0     1.008   -8.719642    8.857865    3.516285
  22 H     1.0000    0     1.008   -6.250435    8.621321    1.246555
  23 H     1.0000    0     1.008   -5.760670    3.441985    6.656257
  24 H     1.0000    0     1.008   -8.896688    2.901249    5.628343
  25 H     1.0000    0     1.008   -8.097619    5.833728    7.057685
  26 H     1.0000    0     1.008   -1.766264   -4.992299   -4.020496
  27 H     1.0000    0     1.008   -8.275745   -2.177673   -0.147128
  28 H     1.0000    0     1.008   -6.301912   -5.349150   -2.971954
  29 H     1.0000    0     1.008    2.219793   -2.891054   -3.638766
  30 H     1.0000    0     1.008    4.884120    0.494066   -1.862010
  31 H     1.0000    0     1.008   -1.027142    6.178032    5.537582
  32 H     1.0000    0     1.008    3.451368    6.959201    4.269851
  33 H     1.0000    0     1.008    5.363878    4.118333    1.013089

--------------------------------
INTERNAL COORDINATES (ANGSTROEM)
--------------------------------
 C      0   0   0     0.000000000000     0.00000000     0.00000000
 C      1   0   0     1.392915993992     0.00000000     0.00000000
 C      2   1   0     1.371393083888   119.87821353     0.00000000
 C      1   2   3     1.378411652034   120.43681727   358.06458826
 C      4   1   2     1.410106195180   121.08819818   358.94166040
 O      4   1   2     1.385256152722   116.98844568   180.10702888
 C      3   2   1     1.403340285860   120.75731765     2.04211884
 C      7   3   2     1.425595869804   120.34304741   181.38766935
 C      8   7   3     1.351778217358   121.44990837   179.07136702
 C      5   4   1     1.440305654461   123.50313094   183.49901620
 C     10   5   4     1.416658275748   119.38133439   186.14982303
 N     10   5   4     1.341624833489   119.40206202     7.24643490
 C     12  10   5     1.311202351417   119.38923077   182.03622859
 C     13  12  10     1.396157473967   123.79643240   359.70474386
 C     14  13  12     1.373309815379   117.96859074   357.97821077
 C      6   4   1     1.361062183732   117.41863185   235.77188266
 O     16   6   4     1.225147976348   122.99434931    17.56822462
 N     16   6   4     1.334555876608   111.56602572   191.37122901
 C     18  16   6     1.448453424824   121.03101302     9.55529209
 C     18  16   6     1.444870475561   120.32057128   180.51271367
 H     20  18  16     1.090745786010   110.28133817   246.95105876
 H     20  18  16     1.089899864475   109.78197931   126.04186527
 H     20  18  16     1.088228489476   108.38768451     6.42674800
 H     19  18  16     1.091013816149   110.15268214    59.58338952
 H     19  18  16     1.089518312492   110.23542364   299.87897554
 H     19  18  16     1.085141255869   108.35060936   179.91057774
 H      3   2   1     1.078884300688   120.59648870   182.29159151
 H      1   2   3     1.078637749676   121.00245380   177.45713904
 H      2   1   3     1.078263273163   119.42557649   181.57401601
 H      8   7   3     1.079254465944   117.75285502     0.10222736
 H      9   8   7     1.079717810202   121.34456066   181.71795059
 H     13  12  10     1.081649728525   115.19424904   180.10002700
 H     14  13  12     1.077736478392   120.31494316   178.90190524
 H     15  14  13     1.080305087063   121.28791997   181.73540890

---------------------------
INTERNAL COORDINATES (A.U.)
---------------------------
 C      0   0   0     0.000000000000     0.00000000     0.00000000
 C      1   0   0     2.632229756203     0.00000000     0.00000000
 C      2   1   0     2.591557350502   119.87821353     0.00000000
 C      1   2   3     2.604820522149   120.43681727   358.06458826
 C      4   1   2     2.664714528637   121.08819818   358.94166040
 O      4   1   2     2.617754753974   116.98844568   180.10702888
 C      3   2   1     2.651928812974   120.75731765     2.04211884
 C      7   3   2     2.693985771578   120.34304741   181.38766935
 C      8   7   3     2.554490624608   121.44990837   179.07136702
 C      5   4   1     2.721783236069   123.50313094   183.49901620
 C     10   5   4     2.677096166517   119.38133439   186.14982303
 N     10   5   4     2.535303509762   119.40206202     7.24643490
 C     12  10   5     2.477813350332   119.38923077   182.03622859
 C     13  12  10     2.638355265624   123.79643240   359.70474386
 C     14  13  12     2.595179448092   117.96859074   357.97821077
 C      6   4   1     2.572034778490   117.41863185   235.77188266
 O     16   6   4     2.315194148825   122.99434931    17.56822462
 N     16   6   4     2.521945117205   111.56602572   191.37122901
 C     18  16   6     2.737180290657   121.03101302     9.55529209
 C     18  16   6     2.730409497798   120.32057128   180.51271367
 H     20  18  16     2.061210817288   110.28133817   246.95105876
 H     20  18  16     2.059612257255   109.78197931   126.04186527
 H     20  18  16     2.056453816241   108.38768451     6.42674800
 H     19  18  16     2.061717320846   110.15268214    59.58338952
 H     19  18  16     2.058891228503   110.23542364   299.87897554
 H     19  18  16     2.050619790212   108.35060936   179.91057774
 H      3   2   1     2.038795858488   120.59648870   182.29159151
 H      1   2   3     2.038329944597   121.00245380   177.45713904
 H      2   1   3     2.037622286543   119.42557649   181.57401601
 H      8   7   3     2.039495369446   117.75285502     0.10222736
 H      9   8   7     2.040370963198   121.34456066   181.71795059
 H     13  12  10     2.044021759743   115.19424904   180.10002700
 H     14  13  12     2.036626788697   120.31494316   178.90190524
 H     15  14  13     2.041480755632   121.28791997   181.73540890

---------------------
BASIS SET INFORMATION
---------------------
There are 4 groups of distinct atoms

 Group   1 Type C   : 11s5p1d contracted to 4s3p1d pattern {6311/311/1}
 Group   2 Type O   : 11s5p1d contracted to 4s3p1d pattern {6311/311/1}
 Group   3 Type N   : 11s5p1d contracted to 4s3p1d pattern {6311/311/1}
 Group   4 Type H   : 5s contracted to 3s pattern {311}

Atom   0C    basis set group =>   1
Atom   1C    basis set group =>   1
Atom   2C    basis set group =>   1
Atom   3C    basis set group =>   1
Atom   4C    basis set group =>   1
Atom   5O    basis set group =>   2
Atom   6C    basis set group =>   1
Atom   7C    basis set group =>   1
Atom   8C    basis set group =>   1
Atom   9C    basis set group =>   1
Atom  10C    basis set group =>   1
Atom  11N    basis set group =>   3
Atom  12C    basis set group =>   1
Atom  13C    basis set group =>   1
Atom  14C    basis set group =>   1
Atom  15C    basis set group =>   1
Atom  16O    basis set group =>   2
Atom  17N    basis set group =>   3
Atom  18C    basis set group =>   1
Atom  19C    basis set group =>   1
Atom  20H    basis set group =>   4
Atom  21H    basis set group =>   4
Atom  22H    basis set group =>   4
Atom  23H    basis set group =>   4
Atom  24H    basis set group =>   4
Atom  25H    basis set group =>   4
Atom  26H    basis set group =>   4
Atom  27H    basis set group =>   4
Atom  28H    basis set group =>   4
Atom  29H    basis set group =>   4
Atom  30H    basis set group =>   4
Atom  31H    basis set group =>   4
Atom  32H    basis set group =>   4
Atom  33H    basis set group =>   4
---------------------------------
AUXILIARY/J BASIS SET INFORMATION
---------------------------------
There are 4 groups of distinct atoms

 Group   1 Type C   : 12s5p4d2f1g contracted to 6s4p3d1f1g pattern {711111/2111/211/2/1}
 Group   2 Type O   : 12s5p4d2f1g contracted to 6s4p3d1f1g pattern {711111/2111/211/2/1}
 Group   3 Type N   : 12s5p4d2f1g contracted to 6s4p3d1f1g pattern {711111/2111/211/2/1}
 Group   4 Type H   : 5s2p1d contracted to 3s1p1d pattern {311/2/1}

Atom   0C    basis set group =>   1
Atom   1C    basis set group =>   1
Atom   2C    basis set group =>   1
Atom   3C    basis set group =>   1
Atom   4C    basis set group =>   1
Atom   5O    basis set group =>   2
Atom   6C    basis set group =>   1
Atom   7C    basis set group =>   1
Atom   8C    basis set group =>   1
Atom   9C    basis set group =>   1
Atom  10C    basis set group =>   1
Atom  11N    basis set group =>   3
Atom  12C    basis set group =>   1
Atom  13C    basis set group =>   1
Atom  14C    basis set group =>   1
Atom  15C    basis set group =>   1
Atom  16O    basis set group =>   2
Atom  17N    basis set group =>   3
Atom  18C    basis set group =>   1
Atom  19C    basis set group =>   1
Atom  20H    basis set group =>   4
Atom  21H    basis set group =>   4
Atom  22H    basis set group =>   4
Atom  23H    basis set group =>   4
Atom  24H    basis set group =>   4
Atom  25H    basis set group =>   4
Atom  26H    basis set group =>   4
Atom  27H    basis set group =>   4
Atom  28H    basis set group =>   4
Atom  29H    basis set group =>   4
Atom  30H    basis set group =>   4
Atom  31H    basis set group =>   4
Atom  32H    basis set group =>   4
Atom  33H    basis set group =>   4
------------------------------------------------------------------------------
                             ORCA STARTUP CALCULATIONS
                           -- RI-GTO INTEGRALS CHOSEN --
------------------------------------------------------------------------------
------------------------------------------------------------------------------
                   ___                                                        
                  /   \      - P O W E R E D   B Y -                         
                 /     \                                                     
                 |  |  |   _    _      __       _____    __    __             
                 |  |  |  | |  | |    /  \     |  _  \  |  |  /  |          
                  \  \/   | |  | |   /    \    | | | |  |  | /  /          
                 / \  \   | |__| |  /  /\  \   | |_| |  |  |/  /          
                |  |  |   |  __  | /  /__\  \  |    /   |      \           
                |  |  |   | |  | | |   __   |  |    \   |  |\   \          
                \     /   | |  | | |  |  |  |  | |\  \  |  | \   \       
                 \___/    |_|  |_| |__|  |__|  |_| \__\ |__|  \__/        
                                                                              
                      - O R C A' S   B I G   F R I E N D -                    
                                      &                                       
                       - I N T E G R A L  F E E D E R -                       
                                                                              
 v1 FN, 2020, v2 2021, v3 2022-2024                                           
------------------------------------------------------------------------------


----------------------
SHARK INTEGRAL PACKAGE
----------------------

Number of atoms                             ...     34
Number of basis functions                   ...    402
Number of shells                            ...    202
Maximum angular momentum                    ...      2
Integral batch strategy                     ... SHARK/LIBINT Hybrid
RI-J (if used) integral strategy            ... SPLIT-RIJ (Revised 2003 algorithm where possible)
Printlevel                                  ...      1
Contraction scheme used                     ... SEGMENTED contraction
Prescreening option                         ... SCHWARTZ
   Thresh                                   ... 2.500e-11
   Tcut                                     ... 2.500e-12
   Tpresel                                  ... 2.500e-12 
Coulomb Range Separation                    ... NOT USED
Exchange Range Separation                   ... NOT USED
Multipole approximations                    ... NOT USED
Finite Nucleus Model                        ... NOT USED
CABS basis                                  ... NOT available
Auxiliary Coulomb fitting basis             ... AVAILABLE
   # of basis functions in Aux-J            ...   1134
   # of shells in Aux-J                     ...    370
   Maximum angular momentum in Aux-J        ...      4
Auxiliary J/K fitting basis                 ... NOT available
Auxiliary Correlation fitting basis         ... NOT available
Auxiliary 'external' fitting basis          ... NOT available

Checking pre-screening integrals            ... done (  0.0 sec) Dimension = 202
Check shell pair data                       ... done (  0.0 sec)
Shell pair information
Shell pair cut-off parameter TPreSel        ...   2.5e-12
Total number of shell pairs                 ...     20503
Shell pairs after pre-screening             ...     15443
Total number of primitive shell pairs       ...     84717
Primitive shell pairs kept                  ...     38795
          la=0 lb=0:   5282 shell pairs
          la=1 lb=0:   5712 shell pairs
          la=1 lb=1:   1559 shell pairs
          la=2 lb=0:   1736 shell pairs
          la=2 lb=1:    984 shell pairs
          la=2 lb=2:    170 shell pairs

Calculating one electron integrals          ... done (  0.0 sec)
Calculating RI/J V-Matrix + Cholesky decomp.... done (  0.3 sec)
Calculating Nuclear repulsion               ... done (  0.0 sec) ENN=   1548.518712718134 Eh

Diagonalization of the overlap matrix:
Smallest eigenvalue                        ... 7.930e-05
Time for diagonalization                   ...    0.009 sec
Threshold for overlap eigenvalues          ... 1.000e-07
Number of eigenvalues below threshold      ... 0
Time for construction of square roots      ...    0.029 sec
Total time needed                          ...    0.048 sec

-------------------
DFT GRID GENERATION
-------------------

General Integration Accuracy     IntAcc      ... 4.388
Radial Grid Type                 RadialGrid  ... OptM3 with GC (2021)
Angular Grid (max. ang.)         AngularGrid ... 4 (Lebedev-302)
Angular grid pruning method      GridPruning ... 4 (adaptive)
Weight generation scheme         WeightScheme... mBecke (2022)
Basis function cutoff            BFCut       ... 1.0000e-11
Integration weight cutoff        WCut        ... 1.0000e-14
Partially contracted basis set               ... off
Rotationally invariant grid construction     ... off
Angular grids for H and He will be reduced by one unit

Total number of grid points                  ...   164215
Total number of batches                      ...     2586
Average number of points per batch           ...       63
Average number of grid points per atom       ...     4830

--------------------
COSX GRID GENERATION
--------------------

GRIDX 1
-------
General Integration Accuracy     IntAcc      ... 3.816
Radial Grid Type                 RadialGrid  ... OptM3 with GC (2021)
Angular Grid (max. ang.)         AngularGrid ... 1 (Lebedev-50)
Angular grid pruning method      GridPruning ... 4 (adaptive)
Weight generation scheme         WeightScheme... mBecke (2022)
Basis function cutoff            BFCut       ... 1.0000e-11
Integration weight cutoff        WCut        ... 1.0000e-14
Partially contracted basis set               ... on
Rotationally invariant grid construction     ... off
Angular grids for H and He will be reduced by one unit

Total number of grid points                  ...    20868
Total number of batches                      ...      180
Average number of points per batch           ...      115
Average number of grid points per atom       ...      614
UseSFitting                                  ... on

GRIDX 2
-------
General Integration Accuracy     IntAcc      ... 4.020
Radial Grid Type                 RadialGrid  ... OptM3 with GC (2021)
Angular Grid (max. ang.)         AngularGrid ... 2 (Lebedev-110)
Angular grid pruning method      GridPruning ... 4 (adaptive)
Weight generation scheme         WeightScheme... mBecke (2022)
Basis function cutoff            BFCut       ... 1.0000e-11
Integration weight cutoff        WCut        ... 1.0000e-14
Partially contracted basis set               ... on
Rotationally invariant grid construction     ... off
Angular grids for H and He will be reduced by one unit

Total number of grid points                  ...    45541
Total number of batches                      ...      372
Average number of points per batch           ...      122
Average number of grid points per atom       ...     1339
UseSFitting                                  ... on

GRIDX 3
-------
General Integration Accuracy     IntAcc      ... 4.338
Radial Grid Type                 RadialGrid  ... OptM3 with GC (2021)
Angular Grid (max. ang.)         AngularGrid ... 3 (Lebedev-194)
Angular grid pruning method      GridPruning ... 4 (adaptive)
Weight generation scheme         WeightScheme... mBecke (2022)
Basis function cutoff            BFCut       ... 1.0000e-11
Integration weight cutoff        WCut        ... 1.0000e-14
Partially contracted basis set               ... on
Rotationally invariant grid construction     ... off
Angular grids for H and He will be reduced by one unit

Total number of grid points                  ...    99641
Total number of batches                      ...      797
Average number of points per batch           ...      125
Average number of grid points per atom       ...     2931
UseSFitting                                  ... on
Initializing property integral containers    ... done (  0.0 sec)

SHARK setup successfully completed in   4.4 seconds

Maximum memory used throughout the entire STARTUP-calculation: 81.4 MB
-------------------------------------------------------------------------------
                                 ORCA GUESS
                   Start orbitals & Density for SCF / CASSCF
-------------------------------------------------------------------------------

------------
SCF SETTINGS
------------
Hamiltonian:
 Density Functional     Method          .... DFT(GTOs)
 Exchange Functional    Exchange        .... B88
   X-Alpha parameter    XAlpha          ....  0.666667
   Becke's b parameter  XBeta           ....  0.004200
 Correlation Functional Correlation     .... LYP
 LDA part of GGA corr.  LDAOpt          .... VWN-3
 Gradients option       PostSCFGGA      .... off
 Hybrid DFT is turned on
   Fraction HF Exchange ScalHFX         ....  0.200000
   Scaling of DF-GGA-X  ScalDFX         ....  0.720000
   Scaling of DF-GGA-C  ScalDFC         ....  0.810000
   Scaling of DF-LDA-C  ScalLDAC        ....  1.000000
   Perturbative correction              ....  0.000000
   NL short-range parameter             ....  4.800000
 RI-approximation to the Coulomb term is turned on
   Number of AuxJ basis functions       .... 1134
   RIJ-COSX (HFX calculated with COS-X)).... on


General Settings:
 Integral files         IntName         .... 2
 Hartree-Fock type      HFTyp           .... RHF
 Total Charge           Charge          ....    0
 Multiplicity           Mult            ....    1
 Number of Electrons    NEL             ....  140
 Basis Dimension        Dim             ....  402
 Nuclear Repulsion      ENuc            ....   1548.5187127181 Eh

Convergence Acceleration:
 AO-DIIS                CNVDIIS         .... on
   Start iteration      DIISMaxIt       ....    12
   Startup error        DIISStart       ....  0.200000
   # of expansion vecs  DIISMaxEq       ....     5
   Bias factor          DIISBfac        ....   1.050
   Max. coefficient     DIISMaxC        ....  10.000
 MO-DIIS                CNVKDIIS        .... off
 Trust-Rad. Augm. Hess. CNVTRAH         .... auto
   Auto Start mean grad. ratio tolernc. ....  1.125000
   Auto Start start iteration           ....    50
   Auto Start num. interpolation iter.  ....    10
   Max. Number of Micro iterations      ....    24
   Max. Number of Macro iterations      .... Maxiter - #DIIS iter
   Number of Davidson start vectors     ....     2
   Converg. threshold    (grad. norm)   ....   1.000e-05
   Grad. Scal. Fac. for Micro threshold ....   0.100
   Minimum threshold for Micro iter.    ....   1.000e-02
   NR start threshold (gradient norm)   ....   1.000e-04
   Initial trust radius                 ....   0.400
   Minimum AH scaling param. (alpha)    ....   1.000
   Maximum AH scaling param. (alpha)    .... 1000.000
   Quad. conv. algorithm                .... NR
   White noise on init. David. guess    .... on
   Maximum white noise                  ....   0.010
   Pseudo random numbers                .... off
   Inactive MOs                         .... canonical
   Orbital update algorithm             .... Taylor
   Preconditioner                       .... Diag
   Full preconditioner red. dimension   ....   250
 SOSCF                  CNVSOSCF        .... on
   Start iteration      SOSCFMaxIt      ....   150
   Startup grad/error   SOSCFStart      ....  0.003300
   Hessian update       SOSCFHessUp     .... L-BFGS
 Level Shifting         CNVShift        .... on
   Level shift para.    LevelShift      ....    0.2500
   Turn off err/grad.   ShiftErr        ....    0.0010
 Zerner damping         CNVZerner       .... off
 Static damping         CNVDamp         .... on
   Fraction old density DampFac         ....    0.7000
   Max. Damping (<1)    DampMax         ....    0.9800
   Min. Damping (>=0)   DampMin         ....    0.0000
   Turn off err/grad.   DampErr         ....    0.1000

SCF Procedure:
 Maximum # iterations   MaxIter         ....   125
 SCF integral mode      SCFMode         .... Direct
   Integral package                     .... SHARK and LIBINT hybrid scheme
 Reset frequency        DirectResetFreq ....    20
 Integral Threshold     Thresh          ....  2.500e-11 Eh
 Primitive CutOff       TCut            ....  2.500e-12 Eh

Convergence Tolerance:
 Convergence Check Mode ConvCheckMode   .... Total+1el-Energy
 Convergence forced     ConvForced      .... 1
 Energy Change          TolE            ....  1.000e-08 Eh
 1-El. energy change                    ....  1.000e-05 Eh
 Orbital Gradient       TolG            ....  1.000e-05
 Orbital Rotation angle TolX            ....  1.000e-05
 DIIS Error             TolErr          ....  5.000e-07

------------------------------
INITIAL GUESS: MODEL POTENTIAL
------------------------------
Loading Hartree-Fock densities                     ... done
Calculating cut-offs                               ... done
Initializing the effective Hamiltonian             ... done
Setting up the integral package (SHARK)            ... done
Starting the Coulomb interaction                   ... done (   0.5 sec)
Making the grid                                    ... done (   0.4 sec)
Mapping shells                                     ... done
Starting the XC term evaluation                    ... done (   0.3 sec)
  promolecular density results
     # of electrons  =    139.984961246
     EX              =   -116.101029778
     EC              =     -4.795304149
     EX+EC           =   -120.896333928
Transforming the Hamiltonian                       ... done (   0.0 sec)
Diagonalizing the Hamiltonian                      ... done (   0.0 sec)
Back transforming the eigenvectors                 ... done (   0.0 sec)
Now organizing SCF variables                       ... done
                      ------------------
                      INITIAL GUESS DONE (   1.4 sec)
                      ------------------
             **** ENERGY FILE WAS UPDATED (2.en.tmp) ****
Finished Guess after   1.9 sec
Maximum memory used throughout the entire GUESS-calculation: 48.9 MB

-------------------------------------------------------------------------------------------
                                      ORCA LEAN-SCF
                              memory conserving SCF solver
-------------------------------------------------------------------------------------------

--------------------
CPCM SOLVATION MODEL
--------------------
CPCM parameters:
  Epsilon                                         ...      80.1510
  Refrac                                          ...       1.3328
  Rsolv                                           ...       1.3000
  Surface type                                    ... GAUSSIAN VDW
  Discretization scheme                           ... Constant charge density
    Threshold for H atoms                         ...       5.0000 (charges/Ang^2)
    Threshold for non-H atoms                     ...       5.0000 (charges/Ang^2)
  Epsilon function type                           ...         CPCM
Solvent:                                          ... WATER
Radii:
  Scheme                                          ... Element-dependent radii
  Radius for C  used is    3.8550 Bohr (=   2.0400 Ang.)
  Radius for O  used is    3.4469 Bohr (=   1.8240 Ang.)
  Radius for N  used is    3.5149 Bohr (=   1.8600 Ang.)
  Radius for H  used is    2.4944 Bohr (=   1.3200 Ang.)
Calculating surface                               ...        done! (  0.0s)
Cavity surface points                             ...         2959
Cavity Volume                                     ...    2085.2045
Cavity Surface-area                               ...    1045.4211
Calculating surface distance matrix               ...        done! (  0.0s)
Performing Cholesky decomposition & store         ...        done! (  0.9s)
Overall time for CPCM initialization              ...                 0.9s

----------------------------------------D-I-I-S--------------------------------------------
Iteration    Energy (Eh)           Delta-E    RMSDP     MaxDP     DIISErr   Damp  Time(sec)
-------------------------------------------------------------------------------------------
               ***  Starting incremental Fock matrix formation  ***
    1    -877.8366878595466005     0.00e+00  1.86e-03  7.63e-02  3.53e-01  0.700  15.8
    2    -878.0562575064536759    -2.20e-01  1.40e-03  3.56e-02  1.38e-01  0.700   8.3
                               ***Turning on AO-DIIS***
    3    -878.1473382951066924    -9.11e-02  6.26e-04  1.62e-02  4.23e-02  0.700   8.8
    4    -878.2020254118492630    -5.47e-02  9.75e-04  2.22e-02  2.24e-02  0.000   7.5
    5    -878.3204300177462756    -1.18e-01  2.18e-04  6.69e-03  5.20e-03  0.000   8.1
                              *** Initializing SOSCF ***
---------------------------------------S-O-S-C-F--------------------------------------
Iteration    Energy (Eh)           Delta-E    RMSDP     MaxDP     MaxGrad    Time(sec)
--------------------------------------------------------------------------------------
    6    -878.3210063968726899    -5.76e-04  6.24e-05  1.66e-03  2.07e-03     7.4
               *** Restarting incremental Fock matrix formation ***
    7    -878.3210693147352686    -6.29e-05  4.13e-05  1.54e-03  4.55e-04    17.1
    8    -878.3210584470634785     1.09e-05  2.26e-05  9.76e-04  8.48e-04    12.8
    9    -878.3210769123888895    -1.85e-05  3.39e-06  1.05e-04  1.71e-05    10.2
   10    -878.3210768640419701     4.83e-08  1.77e-06  6.95e-05  3.72e-05     7.6
   11    -878.3210769662537132    -1.02e-07  5.54e-07  2.04e-05  4.45e-06     7.2
   12    -878.3210769588267794     7.43e-09  3.06e-07  1.24e-05  5.12e-06     6.0
                 **** Energy Check signals convergence ****

               *****************************************************
               *                     SUCCESS                       *
               *           SCF CONVERGED AFTER  12 CYCLES          *
               *****************************************************

Recomputing exchange energy using gridx3       ... done (   23.339 sec)
Old exchange energy                            :    -23.584069823 Eh
New exchange energy                            :    -23.584108177 Eh
Exchange energy change after final integration :     -0.000038354 Eh
Total energy after final integration           :   -878.321115313 Eh
             **** ENERGY FILE WAS UPDATED (2.en.tmp) ****

----------------
TOTAL SCF ENERGY
----------------

Total Energy       :       -878.32111531306793 Eh          -23900.33262 eV

Components:
Nuclear Repulsion  :       1548.51871271813388 Eh           42137.33639 eV
Electronic Energy  :      -2426.81707671628010 Eh          -66037.04992 eV
One Electron Energy:      -4270.39852107542265 Eh         -116203.45143 eV
Two Electron Energy:       1843.58144435914255 Eh           50166.40151 eV
CPCM Dielectric    :         -0.02271296068064 Eh              -0.61805 eV

Virial components:
Potential Energy   :      -1753.88381276430982 Eh          -47725.60487 eV
Kinetic Energy     :        875.56269745124189 Eh           23825.27225 eV
Virial Ratio       :          2.00315045155516

DFT components:
N(Alpha)           :       69.999910847324 electrons
N(Beta)            :       69.999910847324 electrons
N(Total)           :      139.999821694647 electrons
E(X)               :      -93.743527027425 Eh       
E(C)               :       -6.166439668931 Eh       
E(XC)              :      -99.909966696356 Eh       

CPCM Solvation Model Properties:
Surface-charge          :         -0.02743137963598
Corrected charge        :         -0.00000000000000
Outlying charge corr.   :          0.00004301181994 Eh               0.00117 eV
Free-energy (cav+disp)  :  This term is not implemented in the current solvation scheme

---------------
SCF CONVERGENCE
---------------

  Last Energy change         ...   -7.4269e-09  Tolerance :   1.0000e-08
  Last MAX-Density change    ...    1.2367e-05  Tolerance :   1.0000e-07
  Last RMS-Density change    ...    3.0643e-07  Tolerance :   5.0000e-09
  Last DIIS Error            ...    2.0673e-03  Tolerance :   5.0000e-07
  Last Orbital Gradient      ...    5.1173e-06  Tolerance :   1.0000e-05
  Last Orbital Rotation      ...    1.0591e-05  Tolerance :   1.0000e-05


----------------
ORBITAL ENERGIES
----------------

  NO   OCC          E(Eh)            E(eV) 
   0   2.0000     -19.166951      -521.5593 
   1   2.0000     -19.080024      -519.1939 
   2   2.0000     -14.338085      -390.1591 
   3   2.0000     -14.309773      -389.3887 
   4   2.0000     -10.313506      -280.6448 
   5   2.0000     -10.245828      -278.8032 
   6   2.0000     -10.220191      -278.1055 
   7   2.0000     -10.208781      -277.7951 
   8   2.0000     -10.194305      -277.4011 
   9   2.0000     -10.193646      -277.3832 
  10   2.0000     -10.192772      -277.3594 
  11   2.0000     -10.191348      -277.3207 
  12   2.0000     -10.191177      -277.3160 
  13   2.0000     -10.190999      -277.3112 
  14   2.0000     -10.181057      -277.0406 
  15   2.0000     -10.180813      -277.0340 
  16   2.0000     -10.180516      -277.0259 
  17   2.0000     -10.180087      -277.0142 
  18   2.0000     -10.178738      -276.9776 
  19   2.0000     -10.176369      -276.9131 
  20   2.0000      -1.119489       -30.4628 
  21   2.0000      -1.017274       -27.6814 
  22   2.0000      -0.962543       -26.1921 
  23   2.0000      -0.947294       -25.7772 
  24   2.0000      -0.885375       -24.0923 
  25   2.0000      -0.842277       -22.9195 
  26   2.0000      -0.810932       -22.0666 
  27   2.0000      -0.786429       -21.3998 
  28   2.0000      -0.753847       -20.5132 
  29   2.0000      -0.747803       -20.3488 
  30   2.0000      -0.722983       -19.6734 
  31   2.0000      -0.705575       -19.1997 
  32   2.0000      -0.658276       -17.9126 
  33   2.0000      -0.651396       -17.7254 
  34   2.0000      -0.633633       -17.2420 
  35   2.0000      -0.622473       -16.9383 
  36   2.0000      -0.575499       -15.6601 
  37   2.0000      -0.550567       -14.9817 
  38   2.0000      -0.537593       -14.6287 
  39   2.0000      -0.533094       -14.5062 
  40   2.0000      -0.515118       -14.0171 
  41   2.0000      -0.499199       -13.5839 
  42   2.0000      -0.491929       -13.3861 
  43   2.0000      -0.484469       -13.1831 
  44   2.0000      -0.479470       -13.0470 
  45   2.0000      -0.466325       -12.6894 
  46   2.0000      -0.446768       -12.1572 
  47   2.0000      -0.444355       -12.0915 
  48   2.0000      -0.437877       -11.9152 
  49   2.0000      -0.431171       -11.7328 
  50   2.0000      -0.423700       -11.5295 
  51   2.0000      -0.413021       -11.2389 
  52   2.0000      -0.408126       -11.1057 
  53   2.0000      -0.406189       -11.0530 
  54   2.0000      -0.404210       -10.9991 
  55   2.0000      -0.401726       -10.9315 
  56   2.0000      -0.386977       -10.5302 
  57   2.0000      -0.383923       -10.4471 
  58   2.0000      -0.376676       -10.2499 
  59   2.0000      -0.365284        -9.9399 
  60   2.0000      -0.356199        -9.6927 
  61   2.0000      -0.342070        -9.3082 
  62   2.0000      -0.318959        -8.6793 
  63   2.0000      -0.305310        -8.3079 
  64   2.0000      -0.280092        -7.6217 
  65   2.0000      -0.279123        -7.5953 
  66   2.0000      -0.262524        -7.1437 
  67   2.0000      -0.248510        -6.7623 
  68   2.0000      -0.243619        -6.6292 
  69   2.0000      -0.226460        -6.1623 
  70   0.0000      -0.060599        -1.6490 
  71   0.0000      -0.051586        -1.4037 
  72   0.0000      -0.012007        -0.3267 
  73   0.0000       0.015866         0.4317 
  74   0.0000       0.045833         1.2472 
  75   0.0000       0.054743         1.4896 
  76   0.0000       0.058337         1.5874 
  77   0.0000       0.061904         1.6845 
  78   0.0000       0.065496         1.7822 
  79   0.0000       0.081557         2.2193 
  80   0.0000       0.088819         2.4169 
*Only the first 10 virtual orbitals were printed.

                    ********************************
                    * MULLIKEN POPULATION ANALYSIS *
                    ********************************

-----------------------
MULLIKEN ATOMIC CHARGES
-----------------------
   0 C :   -0.229343
   1 C :   -0.217345
   2 C :   -0.229866
   3 C :    0.214057
   4 C :    0.019126
   5 O :   -0.363129
   6 C :    0.020599
   7 C :   -0.226697
   8 C :   -0.234310
   9 C :    0.148642
  10 C :   -0.016849
  11 N :   -0.396830
  12 C :   -0.034835
  13 C :   -0.298511
  14 C :   -0.099069
  15 C :    0.547834
  16 O :   -0.464485
  17 N :   -0.315390
  18 C :   -0.513649
  19 C :   -0.533446
  20 H :    0.234335
  21 H :    0.235759
  22 H :    0.229683
  23 H :    0.224878
  24 H :    0.231838
  25 H :    0.235741
  26 H :    0.226859
  27 H :    0.228724
  28 H :    0.227229
  29 H :    0.229248
  30 H :    0.227517
  31 H :    0.224896
  32 H :    0.230322
  33 H :    0.236469
Sum of atomic charges:    0.0000000

--------------------------------
MULLIKEN REDUCED ORBITAL CHARGES
--------------------------------
  0 C s       :     3.180871  s :     3.180871
      pz      :     1.001463  p :     2.990257
      px      :     1.017101
      py      :     0.971693
      dz2     :     0.010338  d :     0.058216
      dxz     :     0.009403
      dyz     :     0.008678
      dx2y2   :     0.018942
      dxy     :     0.010855

  1 C s       :     3.197748  s :     3.197748
      pz      :     0.975351  p :     2.956431
      px      :     0.980068
      py      :     1.001012
      dz2     :     0.008621  d :     0.063166
      dxz     :     0.014267
      dyz     :     0.007884
      dx2y2   :     0.012606
      dxy     :     0.019788

  2 C s       :     3.190455  s :     3.190455
      pz      :     1.018275  p :     2.978141
      px      :     0.965265
      py      :     0.994601
      dz2     :     0.005844  d :     0.061270
      dxz     :     0.014303
      dyz     :     0.009768
      dx2y2   :     0.013652
      dxy     :     0.017702

  3 C s       :     3.123858  s :     3.123858
      pz      :     0.813423  p :     2.547350
      px      :     0.869210
      py      :     0.864716
      dz2     :     0.017251  d :     0.114736
      dxz     :     0.022253
      dyz     :     0.018643
      dx2y2   :     0.026876
      dxy     :     0.029713

  4 C s       :     3.026121  s :     3.026121
      pz      :     1.046515  p :     2.886342
      px      :     0.868510
      py      :     0.971318
      dz2     :     0.010586  d :     0.068411
      dxz     :     0.015025
      dyz     :     0.008766
      dx2y2   :     0.017488
      dxy     :     0.016545

  5 O s       :     3.805966  s :     3.805966
      pz      :     1.634337  p :     4.542122
      px      :     1.696353
      py      :     1.211432
      dz2     :     0.002566  d :     0.015041
      dxz     :     0.002381
      dyz     :     0.003975
      dx2y2   :     0.003309
      dxy     :     0.002810

  6 C s       :     3.084145  s :     3.084145
      pz      :     0.948137  p :     2.818905
      px      :     0.936946
      py      :     0.933822
      dz2     :     0.011876  d :     0.076351
      dxz     :     0.015788
      dyz     :     0.010567
      dx2y2   :     0.019362
      dxy     :     0.018760

  7 C s       :     3.193558  s :     3.193558
      pz      :     1.006276  p :     2.971157
      px      :     0.951264
      py      :     1.013616
      dz2     :     0.006429  d :     0.061982
      dxz     :     0.012767
      dyz     :     0.011311
      dx2y2   :     0.016005
      dxy     :     0.015470

  8 C s       :     3.203092  s :     3.203092
      pz      :     0.970279  p :     2.969222
      px      :     1.034060
      py      :     0.964883
      dz2     :     0.011151  d :     0.061996
      dxz     :     0.009982
      dyz     :     0.010309
      dx2y2   :     0.019717
      dxy     :     0.010837

  9 C s       :     3.057742  s :     3.057742
      pz      :     0.859068  p :     2.694331
      px      :     0.937885
      py      :     0.897377
      dz2     :     0.017454  d :     0.099285
      dxz     :     0.023859
      dyz     :     0.015356
      dx2y2   :     0.021898
      dxy     :     0.020718

 10 C s       :     3.072389  s :     3.072389
      pz      :     0.992846  p :     2.870247
      px      :     0.902956
      py      :     0.974444
      dz2     :     0.012854  d :     0.074213
      dxz     :     0.014887
      dyz     :     0.011110
      dx2y2   :     0.018459
      dxy     :     0.016903

 11 N s       :     3.630518  s :     3.630518
      pz      :     1.140891  p :     3.729445
      px      :     1.506586
      py      :     1.081967
      dz2     :     0.006852  d :     0.036868
      dxz     :     0.008300
      dyz     :     0.005823
      dx2y2   :     0.005950
      dxy     :     0.009944

 12 C s       :     3.138475  s :     3.138475
      pz      :     0.970926  p :     2.806839
      px      :     0.910042
      py      :     0.925871
      dz2     :     0.012393  d :     0.089522
      dxz     :     0.017770
      dyz     :     0.015382
      dx2y2   :     0.021702
      dxy     :     0.022275

 13 C s       :     3.235652  s :     3.235652
      pz      :     0.990303  p :     3.003292
      px      :     0.975164
      py      :     1.037825
      dz2     :     0.008877  d :     0.059566
      dxz     :     0.013581
      dyz     :     0.009225
      dx2y2   :     0.012461
      dxy     :     0.015422

 14 C s       :     3.154649  s :     3.154649
      pz      :     0.950802  p :     2.882032
      px      :     0.995377
      py      :     0.935854
      dz2     :     0.011824  d :     0.062388
      dxz     :     0.011511
      dyz     :     0.009669
      dx2y2   :     0.018732
      dxy     :     0.010651

 15 C s       :     2.899457  s :     2.899457
      pz      :     0.770504  p :     2.322196
      px      :     0.825880
      py      :     0.725812
      dz2     :     0.056076  d :     0.230512
      dxz     :     0.040118
      dyz     :     0.068400
      dx2y2   :     0.034641
      dxy     :     0.031277

 16 O s       :     3.824452  s :     3.824452
      pz      :     1.393048  p :     4.624172
      px      :     1.527067
      py      :     1.704057
      dz2     :     0.005900  d :     0.015861
      dxz     :     0.004211
      dyz     :     0.004093
      dx2y2   :     0.000758
      dxy     :     0.000899

 17 N s       :     3.462223  s :     3.462223
      pz      :     1.145413  p :     3.817752
      px      :     1.559540
      py      :     1.112800
      dz2     :     0.008014  d :     0.035415
      dxz     :     0.005158
      dyz     :     0.011762
      dx2y2   :     0.004882
      dxy     :     0.005598

 18 C s       :     3.310870  s :     3.310870
      pz      :     0.874337  p :     3.131480
      px      :     1.144650
      py      :     1.112493
      dz2     :     0.015948  d :     0.071299
      dxz     :     0.015736
      dyz     :     0.017214
      dx2y2   :     0.004874
      dxy     :     0.017527

 19 C s       :     3.323327  s :     3.323327
      pz      :     1.181087  p :     3.138126
      px      :     1.156373
      py      :     0.800667
      dz2     :     0.014225  d :     0.071992
      dxz     :     0.009141
      dyz     :     0.010958
      dx2y2   :     0.018315
      dxy     :     0.019354

 20 H s       :     0.765665  s :     0.765665

 21 H s       :     0.764241  s :     0.764241

 22 H s       :     0.770317  s :     0.770317

 23 H s       :     0.775122  s :     0.775122

 24 H s       :     0.768162  s :     0.768162

 25 H s       :     0.764259  s :     0.764259

 26 H s       :     0.773141  s :     0.773141

 27 H s       :     0.771276  s :     0.771276

 28 H s       :     0.772771  s :     0.772771

 29 H s       :     0.770752  s :     0.770752

 30 H s       :     0.772483  s :     0.772483

 31 H s       :     0.775104  s :     0.775104

 32 H s       :     0.769678  s :     0.769678

 33 H s       :     0.763531  s :     0.763531



                     *******************************
                     * LOEWDIN POPULATION ANALYSIS *
                     *******************************

----------------------
LOEWDIN ATOMIC CHARGES
----------------------
   0 C :   -0.118106
   1 C :   -0.102722
   2 C :   -0.104026
   3 C :   -0.006650
   4 C :   -0.038603
   5 O :    0.069467
   6 C :   -0.031392
   7 C :   -0.092654
   8 C :   -0.097314
   9 C :   -0.031425
  10 C :   -0.050077
  11 N :    0.005382
  12 C :   -0.096646
  13 C :   -0.128586
  14 C :   -0.060026
  15 C :   -0.129715
  16 O :   -0.208197
  17 N :    0.044038
  18 C :   -0.242640
  19 C :   -0.242853
  20 H :    0.110814
  21 H :    0.113464
  22 H :    0.116274
  23 H :    0.105529
  24 H :    0.110698
  25 H :    0.120002
  26 H :    0.122946
  27 H :    0.124206
  28 H :    0.124054
  29 H :    0.125083
  30 H :    0.124502
  31 H :    0.109812
  32 H :    0.127155
  33 H :    0.128203

-------------------------------
LOEWDIN REDUCED ORBITAL CHARGES
-------------------------------
  0 C s       :     2.831474  s :     2.831474
      pz      :     1.029346  p :     3.156758
      px      :     1.065488
      py      :     1.061924
      dz2     :     0.020562  d :     0.129874
      dxz     :     0.020683
      dyz     :     0.022618
      dx2y2   :     0.037322
      dxy     :     0.028689

  1 C s       :     2.827368  s :     2.827368
      pz      :     1.008624  p :     3.138122
      px      :     1.095876
      py      :     1.033622
      dz2     :     0.018171  d :     0.137232
      dxz     :     0.031176
      dyz     :     0.016186
      dx2y2   :     0.031038
      dxy     :     0.040660

  2 C s       :     2.826114  s :     2.826114
      pz      :     1.018913  p :     3.144432
      px      :     1.090718
      py      :     1.034801
      dz2     :     0.012562  d :     0.133479
      dxz     :     0.030418
      dyz     :     0.017383
      dx2y2   :     0.033733
      dxy     :     0.039384

  3 C s       :     2.788695  s :     2.788695
      pz      :     0.940715  p :     2.966236
      px      :     1.054446
      py      :     0.971074
      dz2     :     0.035934  d :     0.251720
      dxz     :     0.050153
      dyz     :     0.043231
      dx2y2   :     0.057338
      dxy     :     0.065064

  4 C s       :     2.782691  s :     2.782691
      pz      :     1.018375  p :     3.094231
      px      :     1.048928
      py      :     1.026927
      dz2     :     0.022904  d :     0.161681
      dxz     :     0.034845
      dyz     :     0.021673
      dx2y2   :     0.042373
      dxy     :     0.039885

  5 O s       :     3.361986  s :     3.361986
      pz      :     1.618023  p :     4.543452
      px      :     1.658474
      py      :     1.266955
      dz2     :     0.003911  d :     0.025096
      dxz     :     0.003042
      dyz     :     0.006718
      dx2y2   :     0.006791
      dxy     :     0.004634

  6 C s       :     2.778625  s :     2.778625
      pz      :     0.995128  p :     3.078617
      px      :     1.058908
      py      :     1.024581
      dz2     :     0.025329  d :     0.174150
      dxz     :     0.035738
      dyz     :     0.025181
      dx2y2   :     0.044654
      dxy     :     0.043249

  7 C s       :     2.827563  s :     2.827563
      pz      :     1.014006  p :     3.130707
      px      :     1.065903
      py      :     1.050799
      dz2     :     0.013486  d :     0.134383
      dxz     :     0.027460
      dyz     :     0.020521
      dx2y2   :     0.037202
      dxy     :     0.035715

  8 C s       :     2.827227  s :     2.827227
      pz      :     1.016817  p :     3.135171
      px      :     1.068494
      py      :     1.049860
      dz2     :     0.022845  d :     0.134915
      dxz     :     0.021219
      dyz     :     0.025084
      dx2y2   :     0.038367
      dxy     :     0.027399

  9 C s       :     2.781563  s :     2.781563
      pz      :     0.985890  p :     3.022530
      px      :     1.055439
      py      :     0.981201
      dz2     :     0.036626  d :     0.227332
      dxz     :     0.057806
      dyz     :     0.035706
      dx2y2   :     0.048496
      dxy     :     0.048697

 10 C s       :     2.782509  s :     2.782509
      pz      :     1.004982  p :     3.095760
      px      :     1.068555
      py      :     1.022223
      dz2     :     0.027208  d :     0.171808
      dxz     :     0.035476
      dyz     :     0.025752
      dx2y2   :     0.042911
      dxy     :     0.040461

 11 N s       :     3.128937  s :     3.128937
      pz      :     1.167618  p :     3.796726
      px      :     1.487588
[...]
 51:    995.29   0.013921   70.35  0.004365  ( 0.039390 -0.048204 -0.022130)
 52:   1013.00   0.028410  143.57  0.008752  (-0.029803  0.082831  0.031666)
 53:   1074.69   0.004737   23.94  0.001376  (-0.031090  0.019500  0.005361)
 54:   1079.06   0.038739  195.77  0.011203  (-0.024724  0.097654  0.032494)
 55:   1086.76   0.028694  145.01  0.008240  (-0.016219  0.070343  0.055030)
 56:   1099.31   0.006770   34.21  0.001922  ( 0.026065  0.030118  0.018312)
 57:   1113.75   0.139359  704.27  0.039047  ( 0.101307 -0.148462 -0.082117)
 58:   1128.98   0.004797   24.24  0.001326  (-0.013115  0.033969 -0.000216)
 59:   1131.78   0.007068   35.72  0.001949  ( 0.022492 -0.029871 -0.023469)
 60:   1168.76   0.003084   15.59  0.000823  ( 0.011999 -0.025272 -0.006388)
 61:   1177.23   0.001501    7.59  0.000398  (-0.012418 -0.005068  0.014769)
 62:   1197.69   0.016712   84.46  0.004354  ( 0.037501 -0.051927 -0.015864)
 63:   1208.77   0.004905   24.79  0.001266  ( 0.030150  0.018879 -0.000916)
 64:   1252.62   0.010668   53.91  0.002658  ( 0.027781 -0.040698 -0.015156)
 65:   1256.47   0.021450  108.40  0.005327  (-0.042047  0.058569  0.011359)
 66:   1286.15   0.001512    7.64  0.000367  ( 0.003620  0.001074 -0.018776)
 67:   1288.27   0.003007   15.20  0.000728  (-0.019655 -0.018493  0.000135)
 68:   1334.49   0.020693  104.57  0.004839  (-0.037218  0.049421  0.031801)
 69:   1369.35   0.008940   45.18  0.002037  (-0.028007 -0.031197 -0.016723)
 70:   1383.16   0.000273    1.38  0.000062  ( 0.000167  0.005449 -0.005641)
 71:   1407.82   0.030137  152.30  0.006680  (-0.031915  0.068620  0.030871)
 72:   1419.21   0.008929   45.12  0.001963  ( 0.030468 -0.026851 -0.017719)
 73:   1428.86   0.003492   17.65  0.000763  (-0.016887  0.015587  0.015316)
 74:   1448.20   0.001043    5.27  0.000225  (-0.014150 -0.000242 -0.004952)
 75:   1451.01   0.002672   13.50  0.000575  ( 0.007998  0.000249 -0.022598)
 76:   1459.80   0.007605   38.43  0.001626  (-0.034111  0.018724  0.010563)
 77:   1473.10   0.003858   19.50  0.000817  (-0.000471  0.015196 -0.024210)
 78:   1489.36   0.000256    1.30  0.000054  (-0.003312 -0.005188  0.003976)
 79:   1499.42   0.005687   28.74  0.001184  (-0.034254 -0.002933 -0.001317)
 80:   1500.95   0.002527   12.77  0.000525  ( 0.021150 -0.002426 -0.008495)
 81:   1504.21   0.005738   29.00  0.001190  (-0.015032 -0.022671  0.021223)
 82:   1511.82   0.000845    4.27  0.000174  (-0.008015 -0.003876 -0.009752)
 83:   1530.17   0.013464   68.04  0.002746  (-0.016888  0.047787  0.013307)
 84:   1545.79   0.005719   28.90  0.001155  (-0.027624  0.004050  0.019368)
 85:   1550.85   0.004240   21.43  0.000853  ( 0.023243  0.016153  0.007219)
 86:   1571.81   0.004414   22.30  0.000876  ( 0.011563 -0.018149 -0.020327)
 87:   1765.98   0.178100  900.04  0.031472  ( 0.058188 -0.000503 -0.167588)
 88:   3025.75   0.008221   41.55  0.000848  (-0.000929 -0.023292  0.017451)
 89:   3030.43   0.021736  109.85  0.002238  ( 0.006020  0.026766  0.038545)
 90:   3096.15   0.015332   77.48  0.001545  ( 0.039083 -0.004150  0.000810)
 91:   3097.56   0.003437   17.37  0.000346  ( 0.018224 -0.001943 -0.003216)
 92:   3162.28   0.005497   27.78  0.000542  (-0.005062  0.013307  0.018433)
 93:   3167.96   0.001709    8.64  0.000168  ( 0.001951  0.002947 -0.012485)
 94:   3176.10   0.000239    1.21  0.000023  ( 0.000017 -0.003605 -0.003240)
 95:   3182.62   0.002560   12.93  0.000251  ( 0.002454 -0.015212 -0.003679)
 96:   3184.22   0.000563    2.85  0.000055  ( 0.005622  0.003774  0.003056)
 97:   3189.69   0.009014   45.55  0.000882  ( 0.021608 -0.009679 -0.017926)
 98:   3191.11   0.001292    6.53  0.000126  ( 0.005480 -0.005963 -0.007794)
 99:   3197.13   0.005129   25.92  0.000501  ( 0.012537 -0.012769 -0.013431)
100:   3201.39   0.009459   47.80  0.000922  ( 0.017921  0.021128  0.012431)
101:   3216.97   0.004846   24.49  0.000470  (-0.013564 -0.015244 -0.007330)

* The epsilon (eps) is given for a Dirac delta lineshape.
** The dipole moment derivative (T) already includes vibrational overlap.

The first frequency considered to be a vibration is 6
The total number of vibrations considered is 96


--------------------------
THERMOCHEMISTRY AT 298.15K
--------------------------

Temperature         ...   298.15 K
Pressure            ...     1.00 atm
Total Mass          ...   266.30 AMU
Quasi RRHO          ...     True
Cut-Off Frequency   ...     1.00 cm^-1

Throughout the following assumptions are being made:
  (1) The electronic state is orbitally nondegenerate
  (2) There are no thermally accessible electronically excited states
  (3) Hindered rotations indicated by low frequency modes are not
      treated as such but are treated as vibrations and this may
      cause some error
  (4) All equations used are the standard statistical mechanics
      equations for an ideal gas
  (5) All vibrations are strictly harmonic

freq.      35.22  E(vib)   ...       0.54 
freq.      45.25  E(vib)   ...       0.53 
freq.      50.51  E(vib)   ...       0.52 
freq.      72.88  E(vib)   ...       0.49 
freq.      92.86  E(vib)   ...       0.47 
freq.     105.28  E(vib)   ...       0.45 
freq.     116.28  E(vib)   ...       0.44 
freq.     137.58  E(vib)   ...       0.42 
freq.     186.11  E(vib)   ...       0.37 
freq.     197.39  E(vib)   ...       0.35 
freq.     214.46  E(vib)   ...       0.34 
freq.     228.86  E(vib)   ...       0.32 
freq.     254.67  E(vib)   ...       0.30 
freq.     278.80  E(vib)   ...       0.28 
freq.     356.25  E(vib)   ...       0.22 
freq.     366.87  E(vib)   ...       0.22 
freq.     367.34  E(vib)   ...       0.21 
freq.     403.66  E(vib)   ...       0.19 
freq.     449.01  E(vib)   ...       0.17 
freq.     459.14  E(vib)   ...       0.16 
freq.     463.93  E(vib)   ...       0.16 
freq.     492.78  E(vib)   ...       0.14 
freq.     506.14  E(vib)   ...       0.14 
freq.     521.46  E(vib)   ...       0.13 
freq.     536.52  E(vib)   ...       0.12 
freq.     581.87  E(vib)   ...       0.11 
freq.     595.42  E(vib)   ...       0.10 
freq.     630.87  E(vib)   ...       0.09 
freq.     666.45  E(vib)   ...       0.08 
freq.     670.92  E(vib)   ...       0.08 
freq.     691.29  E(vib)   ...       0.07 
freq.     701.61  E(vib)   ...       0.07 
freq.     711.64  E(vib)   ...       0.07 
freq.     749.59  E(vib)   ...       0.06 
freq.     781.27  E(vib)   ...       0.05 
freq.     810.18  E(vib)   ...       0.05 
freq.     816.06  E(vib)   ...       0.05 
freq.     829.62  E(vib)   ...       0.04 
freq.     838.43  E(vib)   ...       0.04 
freq.     847.03  E(vib)   ...       0.04 
freq.     900.17  E(vib)   ...       0.03 
freq.     916.86  E(vib)   ...       0.03 
freq.     927.37  E(vib)   ...       0.03 
freq.     945.13  E(vib)   ...       0.03 
freq.     973.38  E(vib)   ...       0.03 
freq.     995.29  E(vib)   ...       0.02 
freq.    1013.00  E(vib)   ...       0.02 
freq.    1074.69  E(vib)   ...       0.02 
freq.    1079.06  E(vib)   ...       0.02 
freq.    1086.76  E(vib)   ...       0.02 
freq.    1099.31  E(vib)   ...       0.02 
freq.    1113.75  E(vib)   ...       0.01 
freq.    1128.98  E(vib)   ...       0.01 
freq.    1131.78  E(vib)   ...       0.01 
freq.    1168.76  E(vib)   ...       0.01 
freq.    1177.23  E(vib)   ...       0.01 
freq.    1197.69  E(vib)   ...       0.01 
freq.    1208.77  E(vib)   ...       0.01 
freq.    1252.62  E(vib)   ...       0.01 
freq.    1256.47  E(vib)   ...       0.01 
freq.    1286.15  E(vib)   ...       0.01 
freq.    1288.27  E(vib)   ...       0.01 
freq.    1334.49  E(vib)   ...       0.01 
freq.    1369.35  E(vib)   ...       0.01 
freq.    1383.16  E(vib)   ...       0.00 
freq.    1407.82  E(vib)   ...       0.00 
freq.    1419.21  E(vib)   ...       0.00 
freq.    1428.86  E(vib)   ...       0.00 
freq.    1448.20  E(vib)   ...       0.00 
freq.    1451.01  E(vib)   ...       0.00 
freq.    1459.80  E(vib)   ...       0.00 
freq.    1473.10  E(vib)   ...       0.00 
freq.    1489.36  E(vib)   ...       0.00 
freq.    1499.42  E(vib)   ...       0.00 
freq.    1500.95  E(vib)   ...       0.00 
freq.    1504.21  E(vib)   ...       0.00 
freq.    1511.82  E(vib)   ...       0.00 
freq.    1530.17  E(vib)   ...       0.00 
freq.    1545.79  E(vib)   ...       0.00 
freq.    1550.85  E(vib)   ...       0.00 
freq.    1571.81  E(vib)   ...       0.00 
freq.    1765.98  E(vib)   ...       0.00 
freq.    3025.75  E(vib)   ...       0.00 
freq.    3030.43  E(vib)   ...       0.00 
freq.    3096.15  E(vib)   ...       0.00 
freq.    3097.56  E(vib)   ...       0.00 
freq.    3162.28  E(vib)   ...       0.00 
freq.    3167.96  E(vib)   ...       0.00 
freq.    3176.10  E(vib)   ...       0.00 
freq.    3182.62  E(vib)   ...       0.00 
freq.    3184.22  E(vib)   ...       0.00 
freq.    3189.69  E(vib)   ...       0.00 
freq.    3191.11  E(vib)   ...       0.00 
freq.    3197.13  E(vib)   ...       0.00 
freq.    3201.39  E(vib)   ...       0.00 
freq.    3216.97  E(vib)   ...       0.00 

------------
INNER ENERGY
------------

The inner energy is: U= E(el) + E(ZPE) + E(vib) + E(rot) + E(trans)
    E(el)   - is the total energy from the electronic structure calculation
              = E(kin-el) + E(nuc-el) + E(el-el) + E(nuc-nuc)
    E(ZPE)  - the the zero temperature vibrational energy from the frequency calculation
    E(vib)  - the the finite temperature correction to E(ZPE) due to population
              of excited vibrational states
    E(rot)  - is the rotational thermal energy
    E(trans)- is the translational thermal energy

Summary of contributions to the inner energy U:
Electronic energy                ...   -878.19250253 Eh
Zero point energy                ...      0.26392046 Eh     165.61 kcal/mol
Thermal vibrational correction   ...      0.01459624 Eh       9.16 kcal/mol
Thermal rotational correction    ...      0.00141627 Eh       0.89 kcal/mol
Thermal translational correction ...      0.00141627 Eh       0.89 kcal/mol
-----------------------------------------------------------------------
Total thermal energy                   -877.91115328 Eh


Summary of corrections to the electronic energy:
(perhaps to be used in another calculation)
Total thermal correction                  0.01742879 Eh      10.94 kcal/mol
Non-thermal (ZPE) correction              0.26392046 Eh     165.61 kcal/mol
-----------------------------------------------------------------------
Total correction                          0.28134925 Eh     176.55 kcal/mol


--------
ENTHALPY
--------

The enthalpy is H = U + kB*T
                kB is Boltzmann's constant
Total thermal energy              ...   -877.91115328 Eh 
Thermal Enthalpy correction       ...      0.00094421 Eh       0.59 kcal/mol
-----------------------------------------------------------------------
Total Enthalpy                    ...   -877.91020907 Eh


Note: Only C1 symmetry has been detected, increase convergence thresholds 
      if your molecule has a higher symmetry. Symmetry factor of 1.0 is   
      used for the rotational entropy correction. 
 

Note: Rotational entropy computed according to Herzberg 
Infrared and Raman Spectra, Chapter V,1, Van Nostrand Reinhold, 1945 
Point Group:  C1, Symmetry Number:   1  
Rotational constants in cm-1:     0.015910     0.011669     0.007442 

Vibrational entropy computed according to the QRRHO of S. Grimme
Chem.Eur.J. 2012 18 9955 using a reference frequency of 100.0 cm-1


-------
ENTROPY
-------

The entropy contributions are T*S = T*(S(el)+S(vib)+S(rot)+S(trans))
     S(el)   - electronic entropy
     S(vib)  - vibrational entropy
     S(rot)  - rotational entropy
     S(trans)- translational entropy
The entropies will be listed as multiplied by the temperature to get
units of energy

Electronic entropy                ...      0.00000000 Eh      0.00 kcal/mol
Vibrational entropy               ...      0.02543243 Eh     15.96 kcal/mol
Rotational entropy                ...      0.01588037 Eh      9.97 kcal/mol
Translational entropy             ...      0.02025841 Eh     12.71 kcal/mol
-----------------------------------------------------------------------
Final entropy term                ...      0.06157122 Eh     38.64 kcal/mol

In case the symmetry of your molecule has not been determined correctly
or in case you have a reason to use a different symmetry number we print 
out the resulting rotational entropy values for sn=1,12:

 non-linear molecules -----------------------------------
|  sn= 1 | S(rot)=       0.01588037 Eh      9.97 kcal/mol|
|  sn= 2 | S(rot)=       0.01522591 Eh      9.55 kcal/mol|
|  sn= 3 | S(rot)=       0.01484308 Eh      9.31 kcal/mol|
|  sn= 4 | S(rot)=       0.01457146 Eh      9.14 kcal/mol|
|  sn= 5 | S(rot)=       0.01436077 Eh      9.01 kcal/mol|
|  sn= 6 | S(rot)=       0.01418862 Eh      8.90 kcal/mol|
|  sn= 7 | S(rot)=       0.01404308 Eh      8.81 kcal/mol|
|  sn= 8 | S(rot)=       0.01391700 Eh      8.73 kcal/mol|
|  sn= 9 | S(rot)=       0.01380579 Eh      8.66 kcal/mol|
|  sn=10 | S(rot)=       0.01370631 Eh      8.60 kcal/mol|
|  sn=11 | S(rot)=       0.01361632 Eh      8.54 kcal/mol|
|  sn=12 | S(rot)=       0.01353417 Eh      8.49 kcal/mol|
 linear molecules ---------------------------------------
|  Dinfh | S(rot)=       0.00995291 Eh      6.25 kcal/mol|
|  Cinfv | S(rot)=       0.01060737 Eh      6.66 kcal/mol|
 --------------------------------------------------------


-------------------
GIBBS FREE ENERGY
-------------------

The Gibbs free energy is G = H - T*S

Total enthalpy                    ...   -877.91020907 Eh 
Total entropy correction          ...     -0.06157122 Eh    -38.64 kcal/mol
-----------------------------------------------------------------------
Final Gibbs free energy         ...   -877.97178029 Eh

For completeness - the Gibbs free energy minus the electronic energy
G-E(el)                           ...      0.22072224 Eh    138.50 kcal/mol



--------------------------------
SUGGESTED CITATIONS FOR THIS RUN
--------------------------------

Below you find a list of papers that are relevant to this ORCA run
We neither can nor want to force you to cite these papers, but we appreciate if you do
You receive ORCA, which is the product of decades of hard work by many enthusiastic individuals, for free
The only thing we kindly ask in return is that you cite our papers,
We deeply appreciate it, if you show your appreciation for ORCA by not just citing the generic ORCA reference.

Please note that relegating all ORCA citations to the supporting information does *not* help us.
SI sections are not indexed - citations you put there will not count into any citation statistics
But we need these citations in order to attract the funding resources that allow us to do what we are doing

Therefore, if you are a happy ORCA user, please consider citing a few of the papers listed below in the main body of your paper

In addition to the list printed below, the program has created the file 2.bibtex that contains the list in bibtex format
You can import this file easily into all common literature databanks and citation aid programs


List of essential papers. We consider these as the minimum necessary citations

  1. Neese,F.
     Software update: the ORCA program system, version 5.0
     WIRES Comput. Molec. Sci., 2022 12(1)e1606
     doi.org/10.1002/wcms.1606

List of papers to cite with high priority. The work reported in these papers was absolutely
necessary for this run to complete.
Our perspective: the developers of density functionals and basis sets usually get cited in chemistry papers
Good! But without the algorithms to do something with them, the functionals or basis sets would not do anything.
Hence, in our opinion, the algorithm design and method developments papers are equally worthy of getting cited

  1. Neese,F.; Olbrich,G.
     Efficient use of the resolution of the identity approximation in time-dependent density functional calculations with hybrid density functionals
     Chem. Phys. Lett., 2002 362 170-178
     doi.org/10.1016/s0009-2614(02)01053-9
  2. Neese,F.
     An improvement of the resolution of the identity approximation for the formation of the Coulomb matrix
     J. Comp. Chem., 2003 24(14)1740-1747
     doi.org/10.1002/jcc.10318
  3. Neese,F.; Wennmohs,F.; Hansen,A.; Becker,U.
     Efficient, approximate and parallel Hartree-Fock and hybrid DFT calculations. A 'chain-of-spheres' algorithm for the Hartree-Fock exchange
     Chem. Phys., 2009 356(1-3)98-109
     doi.org/10.1016/j.chemphys.2008.10.036
  4. Petrenko,T.; Kossmann,S.; Neese,F.
     Efficient time-dependent density functional theory approximations for hybrid density functionals: Analytical gradients and parallelization
     J. Chem. Phys., 2011 134 054116
     doi.org/10.1063/1.3533441
  5. Bykov,D.; Petrenko,T.; Izsak,R.; Kossmann,S.; Becker,U.; Valeev,E.; Neese,F.
     Efficient implementation of the analytic second derivatives of Hartree-Fock and hybrid DFT energies: a detailed analysis of different approximations
     Molec. Phys., 2015 113 1961-1977
     doi.org/10.1080/00268976.2015.1025114
  6. Garcia-Rates,M.; Neese,F.
     Effect of the Solute Cavity on the Solvation Energy and its Derivatives within the Framework of the Gaussian Charge Scheme
     J. Comput. Chem., 2020 41 922-939
     doi.org/10.1002/jcc.26139
  7. Helmich-Paris,B.; de Souza,B.; Neese,F.; Izsák,R.
     An improved chain of spheres for exchange algorithm
     J. Chem. Phys., 2021 155 104109
     doi.org/doi: 10.1063/5.0058766.
  8. Neese,F.
     The SHARK Integral Generation and Digestion System
     J. Comp. Chem., 2022  1-16
     doi.org/10.1002/jcc.26942

List of suggested additional citations. These are papers that are important in the 'surrounding' of 
of this run, or papers that preceded the highly important papers. If you like your results we are grateful for a citation.

  1. Izsak,R.; Neese,F.
     An overlap fitted chain of spheres exchange method
     J. Chem. Phys., 2011 135 144105
     doi.org/10.1063/1.3646921
  2. Izsak,R.; Hansen,A.; Neese,F.
     The resolution of identity and chain of spheres approximations for the LPNO-CCSD singles Fock term
     Molec. Phys., 2012 110 2413-2417
     doi.org/10.1080/00268976.2012.687466
  3. Neese,F.
     The ORCA program system
     WIRES Comput. Molec. Sci., 2012 2(1)73-78
     doi.org/10.1002/wcms.81
  4. Izsak,R.; Neese,F.; Klopper,W.
     Robust fitting techniques in the chain of spheres approximation to the Fock exchange: The role of the complementary space
     J. Chem. Phys., 2013 139 
     doi.org/10.1063/1.4819264
  5. Neese,F.
     Software update: the ORCA program system, version 4.0
     WIRES Comput. Molec. Sci., 2018 8(1)1-6
     doi.org/10.1002/wcms.1327
  6. Neese,F.; Wennmohs,F.; Becker,U.; Riplinger,C.
     The ORCA quantum chemistry program package
     J. Chem. Phys., 2020 152 Art. No. L224108
     doi.org/10.1063/5.0004608

List of optional additional citations

  1. Neese,F.
     Approximate second-order SCF convergence for spin unrestricted wavefunctions
     Chem. Phys. Lett., 2000 325(1-3)93-98
     doi.org/10.1016/s0009-2614(00)00662-x

Timings for individual modules:

Sum of individual times          ...    79703.496 sec (=1328.392 min)
Startup calculation              ...      111.683 sec (=   1.861 min)   0.1 %
SCF iterations                   ...     2352.392 sec (=  39.207 min)   3.0 %
Property integrals               ...        9.008 sec (=   0.150 min)   0.0 %
Property calculations            ...        0.395 sec (=   0.007 min)   0.0 %
CIS module                       ...     5960.820 sec (=  99.347 min)   7.5 %
Geometry relaxation              ...        0.790 sec (=   0.013 min)   0.0 %
Numerical frequency calculation  ...    71268.406 sec (=1187.807 min)  89.4 %
                             ****ORCA TERMINATED NORMALLY****
TOTAL RUN TIME: 0 days 22 hours 2 minutes 57 seconds 101 msec
