
                                 *****************
                                 * O   R   C   A *
                                 *****************

                                            #,                                       
                                            ###                                      
                                            ####                                     
                                            #####                                    
                                            ######                                   
                                           ########,                                 
                                     ,,################,,,,,                         
                               ,,#################################,,                 
                          ,,##########################################,,             
                       ,#########################################, ''#####,          
                    ,#############################################,,   '####,        
                  ,##################################################,,,,####,       
                ,###########''''           ''''###############################       
              ,#####''   ,,,,##########,,,,          '''####'''          '####       
            ,##' ,,,,###########################,,,                        '##       
           ' ,,###''''                  '''############,,,                           
         ,,##''                                '''############,,,,        ,,,,,,###''
      ,#''                                            '''#######################'''  
     '                                                          ''''####''''         
             ,#######,   #######,   ,#######,      ##                                
            ,#'     '#,  ##    ##  ,#'     '#,    #''#        ######   ,####,        
            ##       ##  ##   ,#'  ##            #'  '#       #        #'  '#        
            ##       ##  #######   ##           ,######,      #####,   #    #        
            '#,     ,#'  ##    ##  '#,     ,#' ,#      #,         ##   #,  ,#        
             '#######'   ##     ##  '#######'  #'      '#     #####' # '####'        



                  #######################################################
                  #                        -***-                        #
                  #          Department of theory and spectroscopy      #
                  #    Directorship and core code : Frank Neese         #
                  #        Max Planck Institute fuer Kohlenforschung    #
                  #                Kaiser Wilhelm Platz 1               #
                  #                 D-45470 Muelheim/Ruhr               #
                  #                      Germany                        #
                  #                                                     #
                  #                  All rights reserved                #
                  #                        -***-                        #
                  #######################################################


                         Program Version 5.0.4 -  RELEASE  -


 With contributions from (in alphabetic order):
   Daniel Aravena         : Magnetic Suceptibility
   Michael Atanasov       : Ab Initio Ligand Field Theory (pilot matlab implementation)
   Alexander A. Auer      : GIAO ZORA, VPT2 properties, NMR spectrum
   Ute Becker             : Parallelization
   Giovanni Bistoni       : ED, misc. LED, open-shell LED, HFLD
   Martin Brehm           : Molecular dynamics
   Dmytro Bykov           : SCF Hessian
   Vijay G. Chilkuri      : MRCI spin determinant printing, contributions to CSF-ICE
   Dipayan Datta          : RHF DLPNO-CCSD density
   Achintya Kumar Dutta   : EOM-CC, STEOM-CC
   Dmitry Ganyushin       : Spin-Orbit,Spin-Spin,Magnetic field MRCI
   Miquel Garcia          : C-PCM and meta-GGA Hessian, CC/C-PCM, Gaussian charge scheme
   Yang Guo               : DLPNO-NEVPT2, F12-NEVPT2, CIM, IAO-localization
   Andreas Hansen         : Spin unrestricted coupled pair/coupled cluster methods
   Benjamin Helmich-Paris : MC-RPA, TRAH-SCF, COSX integrals
   Lee Huntington         : MR-EOM, pCC
   Robert Izsak           : Overlap fitted RIJCOSX, COSX-SCS-MP3, EOM
   Marcus Kettner         : VPT2
   Christian Kollmar      : KDIIS, OOCD, Brueckner-CCSD(T), CCSD density, CASPT2, CASPT2-K
   Simone Kossmann        : Meta GGA functionals, TD-DFT gradient, OOMP2, MP2 Hessian
   Martin Krupicka        : Initial AUTO-CI
   Lucas Lang             : DCDCAS
   Marvin Lechner         : AUTO-CI (C++ implementation), FIC-MRCC
   Dagmar Lenk            : GEPOL surface, SMD
   Dimitrios Liakos       : Extrapolation schemes; Compound Job, initial MDCI parallelization
   Dimitrios Manganas     : Further ROCIS development; embedding schemes
   Dimitrios Pantazis     : SARC Basis sets
   Anastasios Papadopoulos: AUTO-CI, single reference methods and gradients
   Taras Petrenko         : DFT Hessian,TD-DFT gradient, ASA, ECA, R-Raman, ABS, FL, XAS/XES, NRVS
   Peter Pinski           : DLPNO-MP2, DLPNO-MP2 Gradient
   Christoph Reimann      : Effective Core Potentials
   Marius Retegan         : Local ZFS, SOC
   Christoph Riplinger    : Optimizer, TS searches, QM/MM, DLPNO-CCSD(T), (RO)-DLPNO pert. Triples
   Tobias Risthaus        : Range-separated hybrids, TD-DFT gradient, RPA, STAB
   Michael Roemelt        : Original ROCIS implementation
   Masaaki Saitow         : Open-shell DLPNO-CCSD energy and density
   Barbara Sandhoefer     : DKH picture change effects
   Avijit Sen             : IP-ROCIS
   Kantharuban Sivalingam : CASSCF convergence, NEVPT2, FIC-MRCI
   Bernardo de Souza      : ESD, SOC TD-DFT
   Georgi Stoychev        : AutoAux, RI-MP2 NMR, DLPNO-MP2 response
   Willem Van den Heuvel  : Paramagnetic NMR
   Boris Wezisla          : Elementary symmetry handling
   Frank Wennmohs         : Technical directorship


 We gratefully acknowledge several colleagues who have allowed us to
 interface, adapt or use parts of their codes:
   Stefan Grimme, W. Hujo, H. Kruse, P. Pracht,  : VdW corrections, initial TS optimization,
                  C. Bannwarth, S. Ehlert          DFT functionals, gCP, sTDA/sTD-DF
   Ed Valeev, F. Pavosevic, A. Kumar             : LibInt (2-el integral package), F12 methods
   Garnet Chan, S. Sharma, J. Yang, R. Olivares  : DMRG
   Ulf Ekstrom                                   : XCFun DFT Library
   Mihaly Kallay                                 : mrcc  (arbitrary order and MRCC methods)
   Jiri Pittner, Ondrej Demel                    : Mk-CCSD
   Frank Weinhold                                : gennbo (NPA and NBO analysis)
   Christopher J. Cramer and Donald G. Truhlar   : smd solvation model
   Lars Goerigk                                  : TD-DFT with DH, B97 family of functionals
   V. Asgeirsson, H. Jonsson                     : NEB implementation
   FAccTs GmbH                                   : IRC, NEB, NEB-TS, DLPNO-Multilevel, CI-OPT
                                                   MM, QMMM, 2- and 3-layer-ONIOM, Crystal-QMMM,
                                                   LR-CPCM, SF, NACMEs, symmetry and pop. for TD-DFT,
                                                   nearIR, NL-DFT gradient (VV10), updates on ESD,
                                                   ML-optimized integration grids
   S Lehtola, MJT Oliveira, MAL Marques          : LibXC Library
   Liviu Ungur et al                             : ANISO software


 Your calculation uses the libint2 library for the computation of 2-el integrals
 For citations please refer to: http://libint.valeyev.net

 Your ORCA version has been built with support for libXC version: 5.1.0
 For citations please refer to: https://tddft.org/programs/libxc/

 This ORCA versions uses:
   CBLAS   interface :  Fast vector & matrix operations
   LAPACKE interface :  Fast linear algebra routines
   SCALAPACK package :  Parallel linear algebra routines
   Shared memory     :  Shared parallel matrices
   BLAS/LAPACK       :  OpenBLAS 0.3.15  USE64BITINT DYNAMIC_ARCH NO_AFFINITY Zen SINGLE_THREADED
        Core in use  :  Zen
   Copyright (c) 2011-2014, The OpenBLAS Project


================================================================================

----- Orbital basis set information -----
Your calculation utilizes the basis: def2-TZVP(-f)
   F. Weigend and R. Ahlrichs, Phys. Chem. Chem. Phys. 7, 3297 (2005).

----- AuxJ basis set information -----
Your calculation utilizes the auxiliary basis: def2/J
   F. Weigend, Phys. Chem. Chem. Phys. 8, 1057 (2006).

----- AuxC basis set information -----
Your calculation utilizes the auxiliary basis: def2-TZVP/C
  H-La, Hf-Rn : A. Hellweg, C. Hattig, S. Hofener and W. Klopper, Theor. Chem. Acc. 117, 587 (2007).
        Ce-Lu : J. Chmela and M. E. Harding, Mol. Phys. (2018).

================================================================================
                                        WARNINGS
                       Please study these warnings very carefully!
================================================================================

INFO   : Checking CIS options ...

WARNING: (CIS/TDDFT): Analytic excited state gradients requested
  ===> : turning on equilibrium dielectric conditions.

WARNING: Analytical Frequencies for this method not available!
  ===> : Switching to Numerical Frequencies!

WARNING: Geometry Optimization
  ===> : Switching off AutoStart
         For restart on a previous wavefunction, please use MOREAD

WARNING: CIS/ROCIS methods need fully converged wavefunctions
  ===> : Setting SCFConvForced true
         You can overwrite this default with %scf ConvForced false 


INFO   : the flag for use of the SHARK integral package has been found!

================================================================================
                                       INPUT FILE
================================================================================
NAME = HBQ_ES.inp
|  1> ! B3LYP/G VERYTIGHTOPT FREQ Def2-TZVP(-f) Def2-TZVP/C Def2/J RIJCOSX TightSCF CPCM(Water) AllPop SOSCF
|  2> 
|  3> %tddft
|  4>     NRoots 3
|  5>     IRoot 1
|  6> end 
|  7> 
|  8> * xyz 0 1
|  9>   C   -3.12087192703524     -0.64375484774937     -0.17509944076070
| 10>   C   -2.67557237067362     -1.73303798077613     -0.92229199608865
| 11>   C   -1.31949796039919     -1.87143195092305     -1.17691219457670
| 12>   C   -2.21214190547548      0.31991025452364      0.28602474558309
| 13>   C   -0.82113087993950      0.27673622153237     -0.03479642714783
| 14>   O   -2.63498144390484      1.24398539876685      1.18855074832960
| 15>   C   -0.37643870931578     -0.90782602211272     -0.73570260125468
| 16>   C   0.98442356538579     -1.08988841630951     -0.99682826091951
| 17>   C   1.91561475843292     -0.13431111705323     -0.59688341579230
| 18>   C   0.11790915978979      1.32763211156651      0.24797261646743
| 19>   C   1.52078417491001      1.07781243640450     -0.00416706890002
| 20>   N   -0.30558123232688      2.52806688290511      0.72189297762733
| 21>   C   0.62340978637044      3.44740695974640      1.05705384541838
| 22>   C   1.99432481278766      3.25961193473067      0.93284478791646
| 23>   C   2.46052659253979      2.07093650322348      0.37092047763987
| 24>   C   -3.82667732276808      1.93868757996704      1.00353723270188
| 25>   O   -4.34376703189302      2.04365648238006     -0.09349960387389
| 26>   N   -4.25478941931480      2.48223888797274      2.15201037205029
| 27>   C   -5.42901227675256      3.34728461855641      2.13641134961215
| 28>   C   -3.60412898151772      2.32649396999597      3.45016113986718
| 29>   H   -2.77722922106739      1.63043110525503      3.38693116714979
| 30>   H   -4.33264467231194      1.95327560096636      4.17220958464789
| 31>   H   -3.23627979009871      3.29482793521057      3.79654274390292
| 32>   H   -5.86610620617295      3.35546362461924      1.14413992587756
| 33>   H   -5.14604678120242      4.36373806660890      2.41932122177495
| 34>   H   -6.16250871917112      2.97663949018861      2.85458434651013
| 35>   H   -0.95376738492604     -2.72925228300467     -1.72736963001812
| 36>   H   -4.15941555762419     -0.56137974761514      0.10901897650572
| 37>   H   -3.37802943871356     -2.48189753499118     -1.26084080003836
| 38>   H   1.30899768999310     -1.98617877064080     -1.50966033515054
| 39>   H   2.97170610440538     -0.31184980702740     -0.76137451024775
| 40>   H   0.23813146724427      4.39631600952427      1.41633667362341
| 41>   H   2.67435223021308      4.04941081853605      1.22466627329643
| 42>   H   3.51459889053286      1.89807558502236      0.19867507826655
| 43> **                         ****END OF INPUT****
================================================================================

                       *****************************
                       * Geometry Optimization Run *
                       *****************************

Geometry optimization settings:
Update method            Update   .... BFGS
Choice of coordinates    CoordSys .... Z-matrix Internals
Initial Hessian          InHess   .... Almoef's Model

Convergence Tolerances:
Energy Change            TolE     ....  2.0000e-07 Eh
Max. Gradient            TolMAXG  ....  3.0000e-05 Eh/bohr
RMS Gradient             TolRMSG  ....  8.0000e-06 Eh/bohr
Max. Displacement        TolMAXD  ....  2.0000e-04 bohr
RMS Displacement         TolRMSD  ....  1.0000e-04 bohr
Strict Convergence                ....  False
------------------------------------------------------------------------------
                        ORCA OPTIMIZATION COORDINATE SETUP
------------------------------------------------------------------------------

The optimization will be done in new redundant internal coordinates
Making redundant internal coordinates   ...  (new redundants) done
Evaluating the initial hessian          ...  (Almloef) done
Evaluating the coordinates              ...  done
Calculating the B-matrix                .... done
Calculating the G-matrix                .... done
Diagonalizing the G-matrix              .... done
Small eigenvalue found = 2.967e-03
Small eigenvalue found = 9.109e-03
Small eigenvalue found = 1.288e-02
Small eigenvalue found = 2.416e-02
The first mode is                       ....   79
The number of degrees of freedom        ....   96

    -----------------------------------------------------------------
                    Redundant Internal Coordinates


    -----------------------------------------------------------------
         Definition                    Initial Value    Approx d2E/dq
    -----------------------------------------------------------------
      1. B(C   1,C   0)                  1.3940         0.615772   
      2. B(C   2,C   1)                  1.3867         0.632429   
      3. B(C   3,C   0)                  1.4025         0.596700   
      4. B(C   4,C   3)                  1.4282         0.543029   
      5. B(O   5,C   3)                  1.3591         0.626774   
      6. B(C   6,C   4)                  1.4464         0.507787   
      7. B(C   6,C   2)                  1.4186         0.562383   
      8. B(C   7,C   6)                  1.3976         0.607599   
      9. B(C   8,C   7)                  1.3929         0.618151   
     10. B(C   9,C   4)                  1.4374         0.524934   
     11. B(C  10,C   9)                  1.4471         0.506606   
     12. B(C  10,C   8)                  1.4059         0.589430   
     13. B(N  11,C   9)                  1.3583         0.628703   
     14. B(C  12,N  11)                  1.3493         0.649904   
     15. B(C  13,C  12)                  1.3893         0.626448   
     16. B(C  14,C  13)                  1.3950         0.613403   
     17. B(C  14,C  10)                  1.4178         0.564178   
     18. B(C  15,O   5)                  1.3918         0.556002   
     19. B(O  16,C  15)                  1.2173         1.055264   
     20. B(N  17,C  15)                  1.3408         0.670481   
     21. B(C  18,N  17)                  1.4585         0.435031   
     22. B(C  19,N  17)                  1.4604         0.432049   
     23. B(H  20,C  19)                  1.0827         0.369872   
     24. B(H  21,C  19)                  1.0915         0.358116   
     25. B(H  22,C  19)                  1.0922         0.357164   
     26. B(H  23,C  18)                  1.0843         0.367711   
     27. B(H  24,C  18)                  1.0924         0.356971   
     28. B(H  25,C  18)                  1.0914         0.358245   
     29. B(H  26,C   2)                  1.0829         0.369650   
     30. B(H  27,C   0)                  1.0799         0.373777   
     31. B(H  28,C   1)                  1.0811         0.372021   
     32. B(H  29,C   7)                  1.0824         0.370238   
     33. B(H  30,C   8)                  1.0835         0.368843   
     34. B(H  31,C  12)                  1.0853         0.366324   
     35. B(H  32,C  13)                  1.0823         0.370428   
     36. B(H  33,C  14)                  1.0820         0.370907   
     37. A(C   1,C   0,C   3)          120.4091         0.430558   
     38. A(C   3,C   0,H  27)          118.9613         0.352848   
     39. A(C   1,C   0,H  27)          120.5221         0.354733   
     40. A(C   2,C   1,H  28)          120.5817         0.356059   
     41. A(C   0,C   1,C   2)          119.2621         0.435083   
     42. A(C   0,C   1,H  28)          120.1031         0.354450   
     43. A(C   1,C   2,H  26)          120.1775         0.355672   
     44. A(C   1,C   2,C   6)          121.6807         0.428052   
     45. A(C   6,C   2,H  26)          118.1417         0.348681   
     46. A(C   4,C   3,O   5)          118.2118         0.421929   
     47. A(C   0,C   3,C   4)          122.4412         0.420976   
     48. A(C   0,C   3,O   5)          118.9406         0.429108   
     49. A(C   3,C   4,C   9)          124.7497         0.411486   
     50. A(C   3,C   4,C   6)          115.6610         0.409071   
     51. A(C   6,C   4,C   9)          119.5522         0.406625   
     52. A(C   3,O   5,C  15)          121.1639         0.420959   
     53. A(C   4,C   6,C   7)          119.7737         0.417315   
     54. A(C   2,C   6,C   7)          120.0459         0.424992   
     55. A(C   2,C   6,C   4)          120.1719         0.411618   
     56. A(C   6,C   7,H  29)          119.2326         0.353361   
     57. A(C   6,C   7,C   8)          120.5264         0.432259   
     58. A(C   8,C   7,H  29)          120.2401         0.354393   
     59. A(C   7,C   8,H  30)          119.7109         0.354166   
     60. A(C  10,C   8,H  30)          118.6225         0.351326   
     61. A(C   7,C   8,C  10)          121.6542         0.429909   
     62. A(C   4,C   9,C  10)          118.2187         0.406458   
     63. A(C  10,C   9,N  11)          121.0389         0.416966   
     64. A(C   4,C   9,N  11)          120.7364         0.419615   
     65. A(C   9,C  10,C  14)          118.3954         0.411681   
     66. A(C   8,C  10,C  14)          121.9605         0.422932   
     67. A(C   8,C  10,C   9)          119.6416         0.414895   
     68. A(C   9,N  11,C  12)          118.3055         0.433133   
     69. A(N  11,C  12,H  31)          115.6918         0.354571   
     70. A(N  11,C  12,C  13)          124.4091         0.435706   
     71. A(C  13,C  12,H  31)          119.8725         0.354556   
     72. A(C  12,C  13,H  32)          119.8189         0.355226   
     73. A(C  12,C  13,C  14)          118.7487         0.434039   
     74. A(C  14,C  13,H  32)          121.3615         0.353961   
     75. A(C  10,C  14,H  33)          119.4534         0.349068   
     76. A(C  10,C  14,C  13)          118.8113         0.425958   
     77. A(C  13,C  14,H  33)          121.7251         0.354039   
     78. A(O  16,C  15,N  17)          126.9656         0.478670   
     79. A(O   5,C  15,N  17)          111.2162         0.426063   
     80. A(O   5,C  15,O  16)          121.7730         0.462502   
     81. A(C  18,N  17,C  19)          115.5589         0.377666   
     82. A(C  15,N  17,C  19)          125.1629         0.407359   
     83. A(C  15,N  17,C  18)          119.2310         0.407855   
     84. A(H  24,C  18,H  25)          108.6430         0.290206   
     85. A(H  23,C  18,H  25)          109.5007         0.291560   
     86. A(N  17,C  18,H  25)          109.4269         0.330285   
     87. A(H  23,C  18,H  24)          109.5363         0.291397   
     88. A(N  17,C  18,H  24)          109.9108         0.330091   
     89. A(N  17,C  18,H  23)          109.8032         0.331714   
     90. A(H  21,C  19,H  22)          108.5506         0.290214   
     91. A(H  20,C  19,H  22)          109.3458         0.291690   
     92. A(N  17,C  19,H  22)          109.7185         0.329745   
     93. A(H  20,C  19,H  21)          109.1811         0.291812   
     94. A(N  17,C  19,H  21)          109.0938         0.329891   
     95. A(N  17,C  19,H  20)          110.9109         0.331658   
     96. D(C   2,C   1,C   0,H  27)   -174.6083         0.026216   
     97. D(H  28,C   1,C   0,H  27)      2.7586         0.026216   
     98. D(C   2,C   1,C   0,C   3)      1.5835         0.026216   
     99. D(H  28,C   1,C   0,C   3)    178.9504         0.026216   
    100. D(H  26,C   2,C   1,H  28)      0.6001         0.027746   
    101. D(H  26,C   2,C   1,C   0)    177.9541         0.027746   
    102. D(C   6,C   2,C   1,C   0)     -2.2107         0.027746   
    103. D(C   6,C   2,C   1,H  28)   -179.5647         0.027746   
    104. D(O   5,C   3,C   0,C   1)   -169.3275         0.024531   
    105. D(O   5,C   3,C   0,H  27)      6.9232         0.024531   
    106. D(C   4,C   3,C   0,C   1)      3.2205         0.024531   
    107. D(C   4,C   3,C   0,H  27)    179.4712         0.024531   
    108. D(C   6,C   4,C   3,O   5)    165.6483         0.020156   
    109. D(C   9,C   4,C   3,C   0)    170.8149         0.020156   
    110. D(C   6,C   4,C   3,C   0)     -6.9514         0.020156   
    111. D(C   9,C   4,C   3,O   5)    -16.5854         0.020156   
    112. D(C  15,O   5,C   3,C   4)    139.6391         0.028868   
    113. D(C  15,O   5,C   3,C   0)    -47.4961         0.028868   
    114. D(C   7,C   6,C   4,C   9)      7.2471         0.017570   
    115. D(C   7,C   6,C   4,C   3)   -174.8626         0.017570   
    116. D(C   2,C   6,C   4,C   9)   -171.6970         0.017570   
    117. D(C   2,C   6,C   4,C   3)      6.1933         0.017570   
    118. D(C   7,C   6,C   2,H  26)     -0.9579         0.021672   
    119. D(C   7,C   6,C   2,C   1)    179.2037         0.021672   
    120. D(C   4,C   6,C   2,H  26)    177.9834         0.021672   
    121. D(C   4,C   6,C   2,C   1)     -1.8550         0.021672   
    122. D(H  29,C   7,C   6,C   4)    179.1483         0.025486   
    123. D(H  29,C   7,C   6,C   2)     -1.9062         0.025486   
    124. D(C   8,C   7,C   6,C   4)     -0.5158         0.025486   
    125. D(C   8,C   7,C   6,C   2)    178.4297         0.025486   
    126. D(C  10,C   8,C   7,C   6)     -4.3717         0.026431   
    127. D(H  30,C   8,C   7,H  29)     -2.7350         0.026431   
    128. D(H  30,C   8,C   7,C   6)    176.9258         0.026431   
    129. D(C  10,C   8,C   7,H  29)    175.9675         0.026431   
    130. D(N  11,C   9,C   4,C   6)    170.1152         0.018800   
    131. D(C  10,C   9,C   4,C   6)     -9.0050         0.018800   
    132. D(C  10,C   9,C   4,C   3)    173.3096         0.018800   
    133. D(N  11,C   9,C   4,C   3)     -7.5703         0.018800   
    134. D(C  14,C  10,C   9,N  11)      5.7634         0.017487   
    135. D(C  14,C  10,C   9,C   4)   -175.1192         0.017487   
    136. D(C   8,C  10,C   9,N  11)   -174.8072         0.017487   
    137. D(C   8,C  10,C   9,C   4)      4.3102         0.017487   
    138. D(C  14,C  10,C   8,H  30)      0.5279         0.023907   
    139. D(C  14,C  10,C   8,C   7)   -178.1883         0.023907   
    140. D(C   9,C  10,C   8,H  30)   -178.8805         0.023907   
    141. D(C   9,C  10,C   8,C   7)      2.4033         0.023907   
    142. D(C  12,N  11,C   9,C  10)     -5.3664         0.029060   
    143. D(C  12,N  11,C   9,C   4)    175.5384         0.029060   
    144. D(H  31,C  12,N  11,C   9)    179.1010         0.031215   
    145. D(C  13,C  12,N  11,C   9)      0.9856         0.031215   
    146. D(H  32,C  13,C  12,H  31)      1.9398         0.027190   
    147. D(H  32,C  13,C  12,N  11)    179.9813         0.027190   
    148. D(C  14,C  13,C  12,H  31)   -175.0405         0.027190   
    149. D(C  14,C  13,C  12,N  11)      3.0010         0.027190   
    150. D(H  33,C  14,C  13,H  32)     -0.5271         0.026003   
    151. D(H  33,C  14,C  13,C  12)    176.4048         0.026003   
    152. D(C  10,C  14,C  13,H  32)   -179.3639         0.026003   
    153. D(C  10,C  14,C  13,C  12)     -2.4320         0.026003   
    154. D(H  33,C  14,C  10,C   9)    179.4380         0.021816   
    155. D(H  33,C  14,C  10,C   8)      0.0225         0.021816   
    156. D(C  13,C  14,C  10,C   9)     -1.6983         0.021816   
    157. D(C  13,C  14,C  10,C   8)    178.8862         0.021816   
    158. D(O  16,C  15,O   5,C   3)    -20.7809         0.022382   
    159. D(N  17,C  15,O   5,C   3)    161.5033         0.022382   
    160. D(C  19,N  17,C  15,O  16)    179.7888         0.036893   
    161. D(C  19,N  17,C  15,O   5)     -2.6417         0.036893   
    162. D(C  18,N  17,C  15,O  16)     -2.8293         0.036893   
    163. D(C  18,N  17,C  15,O   5)    174.7402         0.036893   
    164. D(H  25,C  18,N  17,C  19)    -56.8526         0.016136   
    165. D(H  25,C  18,N  17,C  15)    125.5198         0.016136   
    166. D(H  24,C  18,N  17,C  19)     62.3740         0.016136   
    167. D(H  24,C  18,N  17,C  15)   -115.2536         0.016136   
    168. D(H  23,C  18,N  17,C  19)   -177.0656         0.016136   
    169. D(H  23,C  18,N  17,C  15)      5.3068         0.016136   
    170. D(H  22,C  19,N  17,C  18)    -62.1407         0.015915   
    171. D(H  22,C  19,N  17,C  15)    115.3267         0.015915   
    172. D(H  21,C  19,N  17,C  18)     56.6560         0.015915   
    173. D(H  21,C  19,N  17,C  15)   -125.8765         0.015915   
    174. D(H  20,C  19,N  17,C  18)    176.9514         0.015915   
    175. D(H  20,C  19,N  17,C  15)     -5.5812         0.015915   
    -----------------------------------------------------------------

Number of atoms                         .... 34
Number of degrees of freedom            .... 175

         *************************************************************
         *                GEOMETRY OPTIMIZATION CYCLE   1            *
         *************************************************************
---------------------------------
CARTESIAN COORDINATES (ANGSTROEM)
---------------------------------
  C     -3.120872   -0.643755   -0.175099
  C     -2.675572   -1.733038   -0.922292
  C     -1.319498   -1.871432   -1.176912
  C     -2.212142    0.319910    0.286025
  C     -0.821131    0.276736   -0.034796
  O     -2.634981    1.243985    1.188551
  C     -0.376439   -0.907826   -0.735703
  C      0.984424   -1.089888   -0.996828
  C      1.915615   -0.134311   -0.596883
  C      0.117909    1.327632    0.247973
  C      1.520784    1.077812   -0.004167
  N     -0.305581    2.528067    0.721893
  C      0.623410    3.447407    1.057054
  C      1.994325    3.259612    0.932845
  C      2.460527    2.070937    0.370920
  C     -3.826677    1.938688    1.003537
  O     -4.343767    2.043656   -0.093500
  N     -4.254789    2.482239    2.152010
  C     -5.429012    3.347285    2.136411
  C     -3.604129    2.326494    3.450161
  H     -2.777229    1.630431    3.386931
  H     -4.332645    1.953276    4.172210
  H     -3.236280    3.294828    3.796543
  H     -5.866106    3.355464    1.144140
  H     -5.146047    4.363738    2.419321
  H     -6.162509    2.976639    2.854584
  H     -0.953767   -2.729252   -1.727370
  H     -4.159416   -0.561380    0.109019
  H     -3.378029   -2.481898   -1.260841
  H      1.308998   -1.986179   -1.509660
  H      2.971706   -0.311850   -0.761375
  H      0.238131    4.396316    1.416337
  H      2.674352    4.049411    1.224666
  H      3.514599    1.898076    0.198675

----------------------------
CARTESIAN COORDINATES (A.U.)
----------------------------
  NO LB      ZA    FRAG     MASS         X           Y           Z
   0 C     6.0000    0    12.011   -5.897593   -1.216520   -0.330890
   1 C     6.0000    0    12.011   -5.056099   -3.274967   -1.742879
   2 C     6.0000    0    12.011   -2.493490   -3.536494   -2.224042
   3 C     6.0000    0    12.011   -4.180342    0.604543    0.540508
   4 C     6.0000    0    12.011   -1.551712    0.522956   -0.065756
   5 O     8.0000    0    15.999   -4.979393    2.350792    2.246035
   6 C     6.0000    0    12.011   -0.711366   -1.715543   -1.390276
   7 C     6.0000    0    12.011    1.860291   -2.059591   -1.883732
   8 C     6.0000    0    12.011    3.619987   -0.253811   -1.127946
   9 C     6.0000    0    12.011    0.222816    2.508861    0.468600
  10 C     6.0000    0    12.011    2.873866    2.036770   -0.007875
  11 N     7.0000    0    14.007   -0.577465    4.777354    1.364180
  12 C     6.0000    0    12.011    1.178074    6.514655    1.997542
  13 C     6.0000    0    12.011    3.768728    6.159774    1.762821
  14 C     6.0000    0    12.011    4.649721    3.913503    0.700938
  15 C     6.0000    0    12.011   -7.231372    3.663589    1.896411
  16 O     8.0000    0    15.999   -8.208530    3.861951   -0.176689
  17 N     7.0000    0    14.007   -8.040387    4.690752    4.066710
  18 C     6.0000    0    12.011  -10.259346    6.325451    4.037232
  19 C     6.0000    0    12.011   -6.810817    4.396436    6.519860
  20 H     1.0000    0     1.008   -5.248203    3.081068    6.400372
  21 H     1.0000    0     1.008   -8.187512    3.691156    7.884333
  22 H     1.0000    0     1.008   -6.115682    6.226322    7.174426
  23 H     1.0000    0     1.008  -11.085334    6.340907    2.162111
  24 H     1.0000    0     1.008   -9.724619    8.246270    4.571855
  25 H     1.0000    0     1.008  -11.645454    5.625033    5.394383
  26 H     1.0000    0     1.008   -1.802359   -5.157539   -3.264256
  27 H     1.0000    0     1.008   -7.860156   -1.060854    0.206016
  28 H     1.0000    0     1.008   -6.383551   -4.690107   -2.382644
  29 H     1.0000    0     1.008    2.473647   -3.753334   -2.852845
  30 H     1.0000    0     1.008    5.615711   -0.589311   -1.438789
  31 H     1.0000    0     1.008    0.450003    8.307833    2.676488
  32 H     1.0000    0     1.008    5.053793    7.652277    2.314284
  33 H     1.0000    0     1.008    6.641629    3.586843    0.375441

--------------------------------
INTERNAL COORDINATES (ANGSTROEM)
--------------------------------
 C      0   0   0     0.000000000000     0.00000000     0.00000000
 C      1   0   0     1.393960599705     0.00000000     0.00000000
 C      2   1   0     1.386694682564   119.26209855     0.00000000
 C      1   2   3     1.402524936197   120.40907171     1.58354437
 C      4   1   2     1.428181324328   122.44122505     3.22045433
 O      4   1   2     1.359139924033   118.94060030   190.67249167
 C      3   2   1     1.418648315239   121.68068505   357.78925032
 C      7   3   2     1.397597744783   120.04593774   179.20373654
 C      8   7   3     1.392910941879   120.52639657   178.42966907
 C      5   4   1     1.437406240397   124.74973635   170.81488702
 C      9   8   7     1.405861787803   121.65424222   355.62825619
 N     10   5   4     1.358303449593   120.73639726   352.42974057
 C     12  10   5     1.349275100565   118.30551286   175.53839805
 C     13  12  10     1.389281422550   124.40913896     0.98560282
 C     14  13  12     1.395009788995   118.74867762     3.00099537
 C      6   4   1     1.391754356641   121.16386938   312.50386549
 O     16   6   4     1.217329067492   121.77301735   339.21911377
 N     16   6   4     1.340790268256   111.21623250   161.50328831
 C     18  16   6     1.458542685159   119.23096428   174.74018485
 C     18  16   6     1.460414633169   125.16286086   357.35832689
 H     20  18  16     1.082711759867   110.91086721   354.41884228
 H     20  18  16     1.091504017091   109.09380334   234.12346459
 H     20  18  16     1.092228873190   109.71848040   115.32673467
 H     19  18  16     1.084306496170   109.80319074     5.30676578
 H     19  18  16     1.092375887457   109.91079240   244.74639808
 H     19  18  16     1.091406109428   109.42693103   125.51980899
 H      3   2   1     1.082874860822   120.17746098   177.95408973
 H      1   2   3     1.079852677354   120.52211977   185.39171160
 H      2   1   3     1.081134523098   120.10312766   177.36686078
 H      8   7   3     1.082442376292   119.23261879   358.09380105
 H      9   8   7     1.083469537011   119.71088519   176.92576593
 H     13  12  10     1.085334933826   115.69177304   179.10100437
 H     14  13  12     1.082302797114   119.81893084   179.98131993
 H     15  14  13     1.081950915727   121.72514733   176.40475582

---------------------------
INTERNAL COORDINATES (A.U.)
---------------------------
 C      0   0   0     0.000000000000     0.00000000     0.00000000
 C      1   0   0     2.634203774919     0.00000000     0.00000000
 C      2   1   0     2.620473181412   119.26209855     0.00000000
 C      1   2   3     2.650388025407   120.40907171     1.58354437
 C      4   1   2     2.698871572561   122.44122505     3.22045433
 O      4   1   2     2.568402234101   118.94060030   190.67249167
 C      3   2   1     2.680856796151   121.68068505   357.78925032
 C      7   3   2     2.641076983025   120.04593774   179.20373654
 C      8   7   3     2.632220209094   120.52639657   178.42966907
 C      5   4   1     2.716304137540   124.74973635   170.81488702
 C      9   8   7     2.656693761093   121.65424222   355.62825619
 N     10   5   4     2.566821526491   120.73639726   352.42974057
 C     12  10   5     2.549760419387   118.30551286   175.53839805
 C     13  12  10     2.625361411564   124.40913896     0.98560282
 C     14  13  12     2.636186455340   118.74867762     3.00099537
 C      6   4   1     2.630034579743   121.16386938   312.50386549
 O     16   6   4     2.300418552422   121.77301735   339.21911377
 N     16   6   4     2.533726410030   111.21623250   161.50328831
 C     18  16   6     2.756246229585   119.23096428   174.74018485
 C     18  16   6     2.759783698660   125.16286086   357.35832689
 H     20  18  16     2.046028708124   110.91086721   354.41884228
 H     20  18  16     2.062643666376   109.09380334   234.12346459
 H     20  18  16     2.064013445891   109.71848040   115.32673467
 H     19  18  16     2.049042322993   109.80319074     5.30676578
 H     19  18  16     2.064291262592   109.91079240   244.74639808
 H     19  18  16     2.062458647708   109.42693103   125.51980899
 H      3   2   1     2.046336924263   120.17746098   177.95408973
 H      1   2   3     2.040625825181   120.52211977   185.39171160
 H      2   1   3     2.043048162583   120.10312766   177.36686078
 H      8   7   3     2.045519646942   119.23261879   358.09380105
 H      9   8   7     2.047460699397   119.71088519   176.92576593
 H     13  12  10     2.050985788508   115.69177304   179.10100437
 H     14  13  12     2.045255880522   119.81893084   179.98131993
 H     15  14  13     2.044590921070   121.72514733   176.40475582

---------------------
BASIS SET INFORMATION
---------------------
There are 4 groups of distinct atoms

 Group   1 Type C   : 11s6p2d contracted to 5s3p2d pattern {62111/411/11}
 Group   2 Type O   : 11s6p2d contracted to 5s3p2d pattern {62111/411/11}
 Group   3 Type N   : 11s6p2d contracted to 5s3p2d pattern {62111/411/11}
 Group   4 Type H   : 5s1p contracted to 3s1p pattern {311/1}

Atom   0C    basis set group =>   1
Atom   1C    basis set group =>   1
Atom   2C    basis set group =>   1
Atom   3C    basis set group =>   1
Atom   4C    basis set group =>   1
Atom   5O    basis set group =>   2
Atom   6C    basis set group =>   1
Atom   7C    basis set group =>   1
Atom   8C    basis set group =>   1
Atom   9C    basis set group =>   1
Atom  10C    basis set group =>   1
Atom  11N    basis set group =>   3
Atom  12C    basis set group =>   1
Atom  13C    basis set group =>   1
Atom  14C    basis set group =>   1
Atom  15C    basis set group =>   1
Atom  16O    basis set group =>   2
Atom  17N    basis set group =>   3
Atom  18C    basis set group =>   1
Atom  19C    basis set group =>   1
Atom  20H    basis set group =>   4
Atom  21H    basis set group =>   4
Atom  22H    basis set group =>   4
Atom  23H    basis set group =>   4
Atom  24H    basis set group =>   4
Atom  25H    basis set group =>   4
Atom  26H    basis set group =>   4
Atom  27H    basis set group =>   4
Atom  28H    basis set group =>   4
Atom  29H    basis set group =>   4
Atom  30H    basis set group =>   4
Atom  31H    basis set group =>   4
Atom  32H    basis set group =>   4
Atom  33H    basis set group =>   4
---------------------------------
AUXILIARY/J BASIS SET INFORMATION
---------------------------------
There are 4 groups of distinct atoms

 Group   1 Type C   : 12s5p4d2f1g contracted to 6s4p3d1f1g pattern {711111/2111/211/2/1}
 Group   2 Type O   : 12s5p4d2f1g contracted to 6s4p3d1f1g pattern {711111/2111/211/2/1}
 Group   3 Type N   : 12s5p4d2f1g contracted to 6s4p3d1f1g pattern {711111/2111/211/2/1}
 Group   4 Type H   : 5s2p1d contracted to 3s1p1d pattern {311/2/1}

Atom   0C    basis set group =>   1
Atom   1C    basis set group =>   1
Atom   2C    basis set group =>   1
Atom   3C    basis set group =>   1
Atom   4C    basis set group =>   1
Atom   5O    basis set group =>   2
Atom   6C    basis set group =>   1
Atom   7C    basis set group =>   1
Atom   8C    basis set group =>   1
Atom   9C    basis set group =>   1
Atom  10C    basis set group =>   1
Atom  11N    basis set group =>   3
Atom  12C    basis set group =>   1
Atom  13C    basis set group =>   1
Atom  14C    basis set group =>   1
Atom  15C    basis set group =>   1
Atom  16O    basis set group =>   2
Atom  17N    basis set group =>   3
Atom  18C    basis set group =>   1
Atom  19C    basis set group =>   1
Atom  20H    basis set group =>   4
Atom  21H    basis set group =>   4
Atom  22H    basis set group =>   4
Atom  23H    basis set group =>   4
Atom  24H    basis set group =>   4
Atom  25H    basis set group =>   4
Atom  26H    basis set group =>   4
Atom  27H    basis set group =>   4
Atom  28H    basis set group =>   4
Atom  29H    basis set group =>   4
Atom  30H    basis set group =>   4
Atom  31H    basis set group =>   4
Atom  32H    basis set group =>   4
Atom  33H    basis set group =>   4
---------------------------------
AUXILIARY/C BASIS SET INFORMATION
---------------------------------
There are 4 groups of distinct atoms

 Group   1 Type C   : 8s6p5d3f1g contracted to 8s6p4d3f1g pattern {11111111/111111/2111/111/1}
 Group   2 Type O   : 8s6p5d3f1g contracted to 8s6p4d3f1g pattern {11111111/111111/2111/111/1}
 Group   3 Type N   : 8s6p5d3f1g contracted to 8s6p4d3f1g pattern {11111111/111111/2111/111/1}
 Group   4 Type H   : 4s3p2d contracted to 4s2p1d pattern {1111/21/2}

Atom   0C    basis set group =>   1
Atom   1C    basis set group =>   1
Atom   2C    basis set group =>   1
Atom   3C    basis set group =>   1
Atom   4C    basis set group =>   1
Atom   5O    basis set group =>   2
Atom   6C    basis set group =>   1
Atom   7C    basis set group =>   1
Atom   8C    basis set group =>   1
Atom   9C    basis set group =>   1
Atom  10C    basis set group =>   1
Atom  11N    basis set group =>   3
Atom  12C    basis set group =>   1
Atom  13C    basis set group =>   1
Atom  14C    basis set group =>   1
Atom  15C    basis set group =>   1
Atom  16O    basis set group =>   2
Atom  17N    basis set group =>   3
Atom  18C    basis set group =>   1
Atom  19C    basis set group =>   1
Atom  20H    basis set group =>   4
Atom  21H    basis set group =>   4
Atom  22H    basis set group =>   4
Atom  23H    basis set group =>   4
Atom  24H    basis set group =>   4
Atom  25H    basis set group =>   4
Atom  26H    basis set group =>   4
Atom  27H    basis set group =>   4
Atom  28H    basis set group =>   4
Atom  29H    basis set group =>   4
Atom  30H    basis set group =>   4
Atom  31H    basis set group =>   4
Atom  32H    basis set group =>   4
Atom  33H    basis set group =>   4
------------------------------------------------------------------------------
                           ORCA GTO INTEGRAL CALCULATION
                           -- RI-GTO INTEGRALS CHOSEN --
------------------------------------------------------------------------------
------------------------------------------------------------------------------
                   ___                                                        
                  /   \      - P O W E R E D   B Y -                         
                 /     \                                                     
                 |  |  |   _    _      __       _____    __    __             
                 |  |  |  | |  | |    /  \     |  _  \  |  |  /  |          
                  \  \/   | |  | |   /    \    | | | |  |  | /  /          
                 / \  \   | |__| |  /  /\  \   | |_| |  |  |/  /          
                |  |  |   |  __  | /  /__\  \  |    /   |      \           
                |  |  |   | |  | | |   __   |  |    \   |  |\   \          
                \     /   | |  | | |  |  |  |  | |\  \  |  | \   \       
                 \___/    |_|  |_| |__|  |__|  |_| \__\ |__|  \__/        
                                                                              
                      - O R C A' S   B I G   F R I E N D -                    
                                      &                                       
                       - I N T E G R A L  F E E D E R -                       
                                                                              
 v1 FN, 2020, v2 2021                                                         
------------------------------------------------------------------------------


Reading SHARK input file HBQ_ES.SHARKINP.tmp ... ok
----------------------
SHARK INTEGRAL PACKAGE
----------------------

Number of atoms                             ...     34
Number of basis functions                   ...    564
Number of shells                            ...    256
Maximum angular momentum                    ...      2
Integral batch strategy                     ... SHARK/LIBINT Hybrid
RI-J (if used) integral strategy            ... SPLIT-RIJ (Revised 2003 algorithm where possible)
Printlevel                                  ...      1
Contraction scheme used                     ... SEGMENTED contraction
Coulomb Range Separation                    ... NOT USED
Exchange Range Separation                   ... NOT USED
Finite Nucleus Model                        ... NOT USED
Auxiliary Coulomb fitting basis             ... AVAILABLE
   # of basis functions in Aux-J            ...   1134
   # of shells in Aux-J                     ...    370
   Maximum angular momentum in Aux-J        ...      4
Auxiliary J/K fitting basis                 ... NOT available
Auxiliary Correlation fitting basis         ... AVAILABLE
   # of basis functions in Aux-C            ...   1730
   # of shells in Aux-C                     ...    538
   Maximum angular momentum in Aux-C        ...      4
Auxiliary 'external' fitting basis          ... NOT available
Integral threshold                          ...     2.500000e-11
Primitive cut-off                           ...     2.500000e-12
Primitive pair pre-selection threshold      ...     2.500000e-12

Calculating pre-screening integrals         ... done (  0.1 sec) Dimension = 256
Organizing shell pair data                  ... done (  0.3 sec)
Shell pair information
Total number of shell pairs                 ...     32896
Shell pairs after pre-screening             ...     24467
Total number of primitive shell pairs       ...    108362
Primitive shell pairs kept                  ...     53423
          la=0 lb=0:   7112 shell pairs
          la=1 lb=0:   8042 shell pairs
          la=1 lb=1:   2271 shell pairs
          la=2 lb=0:   4096 shell pairs
          la=2 lb=1:   2322 shell pairs
          la=2 lb=2:    624 shell pairs

Calculating one electron integrals          ... done (  0.1 sec)
Calculating RI/J V-Matrix + Cholesky decomp.... done (  0.2 sec)
Calculating RI/C V-Matrix + Cholesky decomp.... done (  0.5 sec)
Calculating Nuclear repulsion               ... done (  0.0 sec) ENN=   1483.198630358168 Eh

SHARK setup successfully completed in   1.8 seconds

Maximum memory used throughout the entire GTOINT-calculation: 187.4 MB
-------------------------------------------------------------------------------
                                 ORCA SCF
-------------------------------------------------------------------------------

------------
SCF SETTINGS
------------
Hamiltonian:
 Density Functional     Method          .... DFT(GTOs)
 Exchange Functional    Exchange        .... B88
   X-Alpha parameter    XAlpha          ....  0.666667
   Becke's b parameter  XBeta           ....  0.004200
 Correlation Functional Correlation     .... LYP
 LDA part of GGA corr.  LDAOpt          .... VWN-3
 Gradients option       PostSCFGGA      .... off
 Hybrid DFT is turned on
   Fraction HF Exchange ScalHFX         ....  0.200000
   Scaling of DF-GGA-X  ScalDFX         ....  0.720000
   Scaling of DF-GGA-C  ScalDFC         ....  0.810000
   Scaling of DF-LDA-C  ScalLDAC        ....  1.000000
   Perturbative correction              ....  0.000000
   Density functional embedding theory  .... OFF
   NL short-range parameter             ....  4.800000
 RI-approximation to the Coulomb term is turned on
   Number of AuxJ basis functions       .... 1134
   RIJ-COSX (HFX calculated with COS-X)).... on


General Settings:
 Integral files         IntName         .... HBQ_ES
 Hartree-Fock type      HFTyp           .... RHF
 Total Charge           Charge          ....    0
 Multiplicity           Mult            ....    1
 Number of Electrons    NEL             ....  140
 Basis Dimension        Dim             ....  564
 Nuclear Repulsion      ENuc            ....   1483.1986303582 Eh

Convergence Acceleration:
 DIIS                   CNVDIIS         .... on
   Start iteration      DIISMaxIt       ....    12
   Startup error        DIISStart       ....  0.200000
   # of expansion vecs  DIISMaxEq       ....     5
   Bias factor          DIISBfac        ....   1.050
   Max. coefficient     DIISMaxC        ....  10.000
 Trust-Rad. Augm. Hess. CNVTRAH         .... auto
   Auto Start mean grad. ratio tolernc. ....  1.125000
   Auto Start start iteration           ....    20
   Auto Start num. interpolation iter.  ....    10
   Max. Number of Micro iterations      ....    16
   Max. Number of Macro iterations      .... Maxiter - #DIIS iter
   Number of Davidson start vectors     ....     2
   Converg. threshold I  (grad. norm)   ....   1.000e-05
   Converg. threshold II (energy diff.) ....   1.000e-08
   Grad. Scal. Fac. for Micro threshold ....   0.100
   Minimum threshold for Micro iter.    ....   0.010
   NR start threshold (gradient norm)   ....   0.001
   Initial trust radius                 ....   0.400
   Minimum AH scaling param. (alpha)    ....   1.000
   Maximum AH scaling param. (alpha)    .... 1000.000
   Orbital update algorithm             .... Taylor
   White noise on init. David. guess    .... on
   Maximum white noise                  ....   0.010
   Quad. conv. algorithm                .... NR
 SOSCF                  CNVSOSCF        .... on
   Start iteration      SOSCFMaxIt      ....   150
   Startup grad/error   SOSCFStart      ....  0.003300
 Level Shifting         CNVShift        .... on
   Level shift para.    LevelShift      ....    0.2500
   Turn off err/grad.   ShiftErr        ....    0.0010
 Zerner damping         CNVZerner       .... off
 Static damping         CNVDamp         .... on
   Fraction old density DampFac         ....    0.7000
   Max. Damping (<1)    DampMax         ....    0.9800
   Min. Damping (>=0)   DampMin         ....    0.0000
   Turn off err/grad.   DampErr         ....    0.1000
 Fernandez-Rico         CNVRico         .... off

SCF Procedure:
 Maximum # iterations   MaxIter         ....   125
 SCF integral mode      SCFMode         .... Direct
   Integral package                     .... SHARK and LIBINT hybrid scheme
 Reset frequency        DirectResetFreq ....    20
 Integral Threshold     Thresh          ....  2.500e-11 Eh
 Primitive CutOff       TCut            ....  2.500e-12 Eh

Convergence Tolerance:
 Convergence Check Mode ConvCheckMode   .... Total+1el-Energy
 Convergence forced     ConvForced      .... 1
 Energy Change          TolE            ....  1.000e-08 Eh
 1-El. energy change                    ....  1.000e-05 Eh
 Orbital Gradient       TolG            ....  1.000e-05
 Orbital Rotation angle TolX            ....  1.000e-05
 DIIS Error             TolErr          ....  5.000e-07


Diagonalization of the overlap matrix:
Smallest eigenvalue                        ... 4.805e-06
Time for diagonalization                   ...    0.027 sec
Threshold for overlap eigenvalues          ... 1.000e-08
Number of eigenvalues below threshold      ... 0
Time for construction of square roots      ...    0.038 sec
Total time needed                          ...    0.066 sec

Time for model grid setup =    0.563 sec

------------------------------
INITIAL GUESS: MODEL POTENTIAL
------------------------------
Loading Hartree-Fock densities                     ... done
Calculating cut-offs                               ... done
Initializing the effective Hamiltonian             ... done
Setting up the integral package (SHARK)            ... done
Starting the Coulomb interaction                   ... done (   0.9 sec)
Reading the grid                                   ... done
Mapping shells                                     ... done
Starting the XC term evaluation                    ... done (   0.8 sec)
  promolecular density results
     # of electrons  =    139.998108080
     EX              =   -116.012364712
     EC              =     -4.781695819
     EX+EC           =   -120.794060531
Transforming the Hamiltonian                       ... done (   0.0 sec)
Diagonalizing the Hamiltonian                      ... done (   0.0 sec)
Back transforming the eigenvectors                 ... done (   0.0 sec)
Now organizing SCF variables                       ... done
                      ------------------
                      INITIAL GUESS DONE (   2.3 sec)
                      ------------------
-------------------
DFT GRID GENERATION
-------------------

General Integration Accuracy     IntAcc      ... 4.388
Radial Grid Type                 RadialGrid  ... OptM3 with GC (2021)
Angular Grid (max. ang.)         AngularGrid ... 4 (Lebedev-302)
Angular grid pruning method      GridPruning ... 4 (adaptive)
Weight generation scheme         WeightScheme... Becke
Basis function cutoff            BFCut       ... 1.0000e-11
Integration weight cutoff        WCut        ... 1.0000e-14
Angular grids for H and He will be reduced by one unit
Partially contracted basis set               ... off
Rotationally invariant grid construction     ... off

Total number of grid points                  ...   164544
Total number of batches                      ...     2591
Average number of points per batch           ...       63
Average number of grid points per atom       ...     4840
Time for grid setup =    2.114 sec

--------------------
COSX GRID GENERATION
--------------------

GRIDX 1
-------
General Integration Accuracy     IntAcc      ... 3.816
Radial Grid Type                 RadialGrid  ... OptM3 with GC (2021)
Angular Grid (max. ang.)         AngularGrid ... 1 (Lebedev-50)
Angular grid pruning method      GridPruning ... 4 (adaptive)
Weight generation scheme         WeightScheme... Becke
Basis function cutoff            BFCut       ... 1.0000e-11
Integration weight cutoff        WCut        ... 1.0000e-14
Angular grids for H and He will be reduced by one unit
Partially contracted basis set               ... on
Rotationally invariant grid construction     ... off

Total number of grid points                  ...    20919
Total number of batches                      ...      343
Average number of points per batch           ...       60
Average number of grid points per atom       ...      615
UseSFitting                                  ... on

GRIDX 2
-------
General Integration Accuracy     IntAcc      ... 4.020
Radial Grid Type                 RadialGrid  ... OptM3 with GC (2021)
Angular Grid (max. ang.)         AngularGrid ... 2 (Lebedev-110)
Angular grid pruning method      GridPruning ... 4 (adaptive)
Weight generation scheme         WeightScheme... Becke
Basis function cutoff            BFCut       ... 1.0000e-11
Integration weight cutoff        WCut        ... 1.0000e-14
Angular grids for H and He will be reduced by one unit
Partially contracted basis set               ... on
Rotationally invariant grid construction     ... off

Total number of grid points                  ...    45717
Total number of batches                      ...      731
Average number of points per batch           ...       62
Average number of grid points per atom       ...     1345
UseSFitting                                  ... on

GRIDX 3
-------
General Integration Accuracy     IntAcc      ... 4.338
Radial Grid Type                 RadialGrid  ... OptM3 with GC (2021)
Angular Grid (max. ang.)         AngularGrid ... 3 (Lebedev-194)
Angular grid pruning method      GridPruning ... 4 (adaptive)
Weight generation scheme         WeightScheme... Becke
Basis function cutoff            BFCut       ... 1.0000e-11
Integration weight cutoff        WCut        ... 1.0000e-14
Angular grids for H and He will be reduced by one unit
Partially contracted basis set               ... on
Rotationally invariant grid construction     ... off

Total number of grid points                  ...   100165
Total number of batches                      ...     1580
Average number of points per batch           ...       63
Average number of grid points per atom       ...     2946
UseSFitting                                  ... on

Time for X-Grid setup             =    3.209 sec


--------------------
CPCM SOLVATION MODEL
--------------------
CPCM parameters:
  Epsilon                                         ...      80.4000
  Refrac                                          ...       1.3300
  Rsolv                                           ...       1.3000
  Surface type                                    ... GAUSSIAN VDW
  Epsilon function type                           ...         CPCM
Radii:
 Radius for C  used is    3.8550 Bohr (=   2.0400 Ang.)
 Radius for O  used is    3.4469 Bohr (=   1.8240 Ang.)
 Radius for N  used is    3.5149 Bohr (=   1.8600 Ang.)
 Radius for H  used is    2.4944 Bohr (=   1.3200 Ang.)
Calculating surface                               ...        done! (  0.0s)
GEPOL surface points                              ...         1808
GEPOL Volume                                      ...    2126.5179
GEPOL Surface-area                                ...    1087.0298
Calculating surface distance matrix               ...        done! (  0.0s)
Performing Cholesky decomposition & store         ...        done! (  0.5s)
Overall time for CPCM initialization              ...                 0.5s
--------------
SCF ITERATIONS
--------------
ITER       Energy         Delta-E        Max-DP      RMS-DP      [F,P]     Damp
               ***  Starting incremental Fock matrix formation  ***
  0   -877.9497907703   0.000000000000 0.11175415  0.00142716  0.3083211 0.7000
  1   -878.1689275352  -0.219136764933 0.13155357  0.00130842  0.1198576 0.7000
                               ***Turning on DIIS***
  2   -878.2583111116  -0.089383576458 0.13577800  0.00208410  0.0340162 0.0000
  3   -878.3989811746  -0.140670062968 0.15057166  0.00117140  0.0570516 0.0000
  4   -878.4280472462  -0.029066071620 0.03190849  0.00033269  0.0160058 0.0000
  5   -878.4298622179  -0.001814971653 0.02826926  0.00021920  0.0093817 0.0000
                      *** Initiating the SOSCF procedure ***
                           *** Shutting down DIIS ***
                      *** Re-Reading the Fockian *** 
                      *** Removing any level shift *** 
ITER      Energy       Delta-E        Grad      Rot      Max-DP    RMS-DP
  6   -878.43001142  -0.0001491985  0.000230  0.000230  0.007083  0.000060
               *** Restarting incremental Fock matrix formation ***
  7   -878.43003188  -0.0000204651  0.000125  0.000512  0.004337  0.000045
  8   -878.43003125   0.0000006352  0.000238  0.000302  0.000690  0.000011
  9   -878.43003416  -0.0000029093  0.000029  0.000067  0.000461  0.000007
 10   -878.43003411   0.0000000493  0.000034  0.000036  0.000719  0.000005
 11   -878.43003425  -0.0000001427  0.000006  0.000031  0.000236  0.000003
 12   -878.43003424   0.0000000049  0.000008  0.000020  0.000092  0.000001
                  ***Gradient check signals convergence***
              ***Rediagonalizing the Fockian in SOSCF/NRSCF***

               *****************************************************
               *                     SUCCESS                       *
               *           SCF CONVERGED AFTER  13 CYCLES          *
               *****************************************************

Old exchange energy                            =    -23.537023430 Eh
New exchange energy                            =    -23.536999734 Eh
Exchange energy change after final integration =      0.000023696 Eh
Total energy after final integration           =   -878.430010561 Eh
Final COS-X integration done in                =    55.628 sec

----------------
TOTAL SCF ENERGY
----------------

Total Energy       :         -878.43001056 Eh          -23903.29581 eV

Components:
Nuclear Repulsion  :         1483.19863036 Eh           40359.88659 eV
Electronic Energy  :        -2361.62864092 Eh          -64263.18240 eV
One Electron Energy:        -4139.55941260 Eh         -112643.13828 eV
Two Electron Energy:         1777.93077168 Eh           48379.95589 eV
Max COSX asymmetry :            0.00000191 Eh               0.00005 eV
CPCM Dielectric    :           -0.02420332 Eh              -0.65861 eV

Virial components:
Potential Energy   :        -1752.39732061 Eh          -47685.15536 eV
Kinetic Energy     :          873.96731005 Eh           23781.85955 eV
Virial Ratio       :            2.00510626


DFT components:
N(Alpha)           :       70.000011037391 electrons
N(Beta)            :       70.000011037391 electrons
N(Total)           :      140.000022074781 electrons
E(X)               :      -93.582312458990 Eh       
E(C)               :       -6.153406682742 Eh       
E(XC)              :      -99.735719141732 Eh       
DFET-embed. en.    :        0.000000000000 Eh       
CPCM Solvation Model Properties:
Surface-charge          :           -0.03317917
Charge-correction       :           -0.00044046 Eh              -0.01199 eV
Free-energy (cav+disp)  :  This term is not implemented in the current solvation scheme

---------------
SCF CONVERGENCE
---------------

  Last Energy change         ...   -1.2622e-08  Tolerance :   1.0000e-08
  Last MAX-Density change    ...    1.3323e-15  Tolerance :   1.0000e-07
  Last RMS-Density change    ...    1.6584e-17  Tolerance :   5.0000e-09
  Last Orbital Gradient      ...    1.4769e-06  Tolerance :   1.0000e-05
  Last Orbital Rotation      ...    6.0864e-06  Tolerance :   1.0000e-05

             **** THE GBW FILE WAS UPDATED (HBQ_ES.gbw) ****
             **** DENSITY HBQ_ES.scfp WAS UPDATED ****
             **** ENERGY FILE WAS UPDATED (HBQ_ES.en.tmp) ****
             **** THE GBW FILE WAS UPDATED (HBQ_ES.gbw) ****
             **** DENSITY HBQ_ES.scfp WAS UPDATED ****
----------------
ORBITAL ENERGIES
----------------

  NO   OCC          E(Eh)            E(eV) 
   0   2.0000     -19.177782      -521.8540 
   1   2.0000     -19.106887      -519.9248 
   2   2.0000     -14.359870      -390.7519 
   3   2.0000     -14.321288      -389.7021 
   4   2.0000     -10.327507      -281.0258 
   5   2.0000     -10.252435      -278.9829 
   6   2.0000     -10.227802      -278.3126 
   7   2.0000     -10.213513      -277.9238 
   8   2.0000     -10.201147      -277.5873 
   9   2.0000     -10.200522      -277.5703 
  10   2.0000     -10.199083      -277.5311 
  11   2.0000     -10.198741      -277.5218 
  12   2.0000     -10.198274      -277.5092 
  13   2.0000     -10.197674      -277.4928 
  14   2.0000     -10.185784      -277.1693 
  15   2.0000     -10.185668      -277.1661 
  16   2.0000     -10.184950      -277.1466 
  17   2.0000     -10.184339      -277.1300 
  18   2.0000     -10.181607      -277.0556 
  19   2.0000     -10.179878      -277.0086 
  20   2.0000      -1.121231       -30.5102 
  21   2.0000      -1.033039       -28.1104 
  22   2.0000      -0.954561       -25.9749 
  23   2.0000      -0.947582       -25.7850 
  24   2.0000      -0.877757       -23.8850 
  25   2.0000      -0.835836       -22.7443 
  26   2.0000      -0.806374       -21.9425 
  27   2.0000      -0.783685       -21.3252 
  28   2.0000      -0.754260       -20.5245 
  29   2.0000      -0.739447       -20.1214 
  30   2.0000      -0.724732       -19.7210 
  31   2.0000      -0.710489       -19.3334 
  32   2.0000      -0.658123       -17.9084 
  33   2.0000      -0.651556       -17.7297 
  34   2.0000      -0.636494       -17.3199 
  35   2.0000      -0.613732       -16.7005 
  36   2.0000      -0.579596       -15.7716 
  37   2.0000      -0.545908       -14.8549 
  38   2.0000      -0.537675       -14.6309 
  39   2.0000      -0.530597       -14.4383 
  40   2.0000      -0.520075       -14.1520 
  41   2.0000      -0.497498       -13.5376 
  42   2.0000      -0.494736       -13.4625 
  43   2.0000      -0.484082       -13.1725 
  44   2.0000      -0.480311       -13.0699 
  45   2.0000      -0.467260       -12.7148 
  46   2.0000      -0.448757       -12.2113 
  47   2.0000      -0.444036       -12.0828 
  48   2.0000      -0.437979       -11.9180 
  49   2.0000      -0.429458       -11.6861 
  50   2.0000      -0.419637       -11.4189 
  51   2.0000      -0.414044       -11.2667 
  52   2.0000      -0.411120       -11.1871 
  53   2.0000      -0.409025       -11.1301 
  54   2.0000      -0.406142       -11.0517 
  55   2.0000      -0.403498       -10.9797 
  56   2.0000      -0.389233       -10.5916 
  57   2.0000      -0.384993       -10.4762 
  58   2.0000      -0.376169       -10.2361 
  59   2.0000      -0.366965        -9.9856 
  60   2.0000      -0.356428        -9.6989 
  61   2.0000      -0.341172        -9.2838 
  62   2.0000      -0.327214        -8.9039 
  63   2.0000      -0.309064        -8.4101 
  64   2.0000      -0.295152        -8.0315 
  65   2.0000      -0.276992        -7.5373 
  66   2.0000      -0.265089        -7.2134 
  67   2.0000      -0.257594        -7.0095 
  68   2.0000      -0.244910        -6.6644 
  69   2.0000      -0.219658        -5.9772 
  70   0.0000      -0.070657        -1.9227 
  71   0.0000      -0.057613        -1.5677 
  72   0.0000      -0.016684        -0.4540 
  73   0.0000       0.008629         0.2348 
  74   0.0000       0.031890         0.8678 
  75   0.0000       0.036628         0.9967 
  76   0.0000       0.054294         1.4774 
  77   0.0000       0.060771         1.6537 
  78   0.0000       0.063191         1.7195 
  79   0.0000       0.075692         2.0597 
  80   0.0000       0.077460         2.1078 
  81   0.0000       0.084552         2.3008 
  82   0.0000       0.088437         2.4065 
  83   0.0000       0.092732         2.5234 
  84   0.0000       0.100837         2.7439 
  85   0.0000       0.103081         2.8050 
  86   0.0000       0.108121         2.9421 
  87   0.0000       0.113717         3.0944 
  88   0.0000       0.118656         3.2288 
  89   0.0000       0.120541         3.2801 
  90   0.0000       0.129472         3.5231 
  91   0.0000       0.133138         3.6229 
  92   0.0000       0.141963         3.8630 
  93   0.0000       0.149523         4.0687 
  94   0.0000       0.150369         4.0918 
  95   0.0000       0.160218         4.3597 
  96   0.0000       0.165700         4.5089 
  97   0.0000       0.168072         4.5735 
  98   0.0000       0.174821         4.7571 
  99   0.0000       0.180470         4.9108 
 100   0.0000       0.182561         4.9677 
 101   0.0000       0.191190         5.2026 
 102   0.0000       0.193774         5.2729 
 103   0.0000       0.198362         5.3977 
 104   0.0000       0.203210         5.5296 
 105   0.0000       0.210611         5.7310 
 106   0.0000       0.214014         5.8236 
 107   0.0000       0.218657         5.9500 
 108   0.0000       0.224821         6.1177 
 109   0.0000       0.229818         6.2537 
 110   0.0000       0.237250         6.4559 
 111   0.0000       0.239147         6.5075 
 112   0.0000       0.248761         6.7691 
 113   0.0000       0.258067         7.0224 
 114   0.0000       0.261306         7.1105 
 115   0.0000       0.264755         7.2043 
 116   0.0000       0.269395         7.3306 
 117   0.0000       0.271417         7.3856 
 118   0.0000       0.281255         7.6533 
 119   0.0000       0.286575         7.7981 
 120   0.0000       0.288829         7.8594 
 121   0.0000       0.294114         8.0033 
 122   0.0000       0.297845         8.1048 
 123   0.0000       0.301818         8.2129 
 124   0.0000       0.304319         8.2810 
 125   0.0000       0.307872         8.3776 
 126   0.0000       0.313111         8.5202 
 127   0.0000       0.316691         8.6176 
 128   0.0000       0.324938         8.8420 
 129   0.0000       0.334650         9.1063 
 130   0.0000       0.338852         9.2206 
 131   0.0000       0.341488         9.2924 
 132   0.0000       0.345205         9.3935 
 133   0.0000       0.354641         9.6503 
 134   0.0000       0.358608         9.7582 
 135   0.0000       0.363141         9.8816 
 136   0.0000       0.373265        10.1571 
 137   0.0000       0.378289        10.2938 
 138   0.0000       0.381381        10.3779 
 139   0.0000       0.389473        10.5981 
 140   0.0000       0.394159        10.7256 
 141   0.0000       0.396625        10.7927 
 142   0.0000       0.399760        10.8780 
 143   0.0000       0.407207        11.0807 
 144   0.0000       0.410571        11.1722 
 145   0.0000       0.416132        11.3235 
 146   0.0000       0.421560        11.4712 
 147   0.0000       0.423132        11.5140 
 148   0.0000       0.425986        11.5917 
 149   0.0000       0.436373        11.8743 
 150   0.0000       0.446522        12.1505 
 151   0.0000       0.449555        12.2330 
 152   0.0000       0.450816        12.2673 
 153   0.0000       0.463050        12.6002 
 154   0.0000       0.465540        12.6680 
 155   0.0000       0.466524        12.6948 
 156   0.0000       0.469074        12.7642 
 157   0.0000       0.474076        12.9003 
 158   0.0000       0.477422        12.9913 
 159   0.0000       0.480676        13.0799 
 160   0.0000       0.487219        13.2579 
 161   0.0000       0.490993        13.3606 
 162   0.0000       0.496487        13.5101 
 163   0.0000       0.503973        13.7138 
 164   0.0000       0.512575        13.9479 
 165   0.0000       0.515488        14.0272 
 166   0.0000       0.517384        14.0787 
 167   0.0000       0.520760        14.1706 
 168   0.0000       0.522777        14.2255 
 169   0.0000       0.533085        14.5060 
 170   0.0000       0.536258        14.5923 
 171   0.0000       0.545256        14.8372 
 172   0.0000       0.549893        14.9633 
 173   0.0000       0.556122        15.1328 
 174   0.0000       0.571883        15.5617 
 175   0.0000       0.578684        15.7468 
 176   0.0000       0.587922        15.9982 
 177   0.0000       0.592981        16.1358 
 178   0.0000       0.600501        16.3405 
 179   0.0000       0.603911        16.4332 
 180   0.0000       0.607474        16.5302 
 181   0.0000       0.626168        17.0389 
 182   0.0000       0.632207        17.2032 
 183   0.0000       0.636622        17.3234 
 184   0.0000       0.641689        17.4613 
 185   0.0000       0.646919        17.6036 
 186   0.0000       0.648267        17.6402 
 187   0.0000       0.658082        17.9073 
 188   0.0000       0.668565        18.1926 
 189   0.0000       0.668811        18.1993 
 190   0.0000       0.678977        18.4759 
 191   0.0000       0.679924        18.5017 
 192   0.0000       0.690938        18.8014 
 193   0.0000       0.694229        18.8909 
 194   0.0000       0.698542        19.0083 
 195   0.0000       0.709755        19.3134 
 196   0.0000       0.713895        19.4261 
 197   0.0000       0.725246        19.7350 
 198   0.0000       0.728084        19.8122 
 199   0.0000       0.740941        20.1620 
 200   0.0000       0.744584        20.2611 
 201   0.0000       0.749950        20.4072 
 202   0.0000       0.756266        20.5790 
 203   0.0000       0.761671        20.7261 
 204   0.0000       0.766012        20.8443 
 205   0.0000       0.770366        20.9627 
 206   0.0000       0.783952        21.3324 
 207   0.0000       0.791184        21.5292 
 208   0.0000       0.799021        21.7425 
 209   0.0000       0.808632        22.0040 
 210   0.0000       0.813954        22.1488 
 211   0.0000       0.820658        22.3312 
 212   0.0000       0.824251        22.4290 
 213   0.0000       0.834354        22.7039 
 214   0.0000       0.840712        22.8769 
 215   0.0000       0.849646        23.1200 
 216   0.0000       0.856128        23.2964 
 217   0.0000       0.856755        23.3135 
 218   0.0000       0.859862        23.3980 
 219   0.0000       0.867580        23.6081 
 220   0.0000       0.875663        23.8280 
 221   0.0000       0.887271        24.1439 
 222   0.0000       0.899987        24.4899 
 223   0.0000       0.905773        24.6473 
 224   0.0000       0.935223        25.4487 
 225   0.0000       0.940679        25.5972 
 226   0.0000       0.951512        25.8920 
 227   0.0000       0.952925        25.9304 
 228   0.0000       0.957775        26.0624 
 229   0.0000       0.973277        26.4842 
 230   0.0000       0.980640        26.6846 
 231   0.0000       0.995229        27.0816 
 232   0.0000       0.997669        27.1479 
 233   0.0000       1.002547        27.2807 
 234   0.0000       1.004893        27.3445 
 235   0.0000       1.013967        27.5914 
 236   0.0000       1.023367        27.8472 
 237   0.0000       1.025854        27.9149 
 238   0.0000       1.041753        28.3475 
 239   0.0000       1.052977        28.6530 
 240   0.0000       1.069242        29.0956 
 241   0.0000       1.079730        29.3810 
 242   0.0000       1.083258        29.4770 
 243   0.0000       1.084669        29.5153 
 244   0.0000       1.101222        29.9658 
 245   0.0000       1.107533        30.1375 
 246   0.0000       1.119228        30.4558 
 247   0.0000       1.129248        30.7284 
 248   0.0000       1.150485        31.3063 
 249   0.0000       1.153230        31.3810 
 250   0.0000       1.166135        31.7321 
 251   0.0000       1.169059        31.8117 
 252   0.0000       1.174238        31.9527 
 253   0.0000       1.195734        32.5376 
 254   0.0000       1.198640        32.6166 
 255   0.0000       1.214310        33.0430 
 256   0.0000       1.236057        33.6348 
 257   0.0000       1.243383        33.8342 
 258   0.0000       1.247345        33.9420 
 259   0.0000       1.253395        34.1066 
 260   0.0000       1.256299        34.1856 
 261   0.0000       1.274695        34.6862 
 262   0.0000       1.280080        34.8327 
 263   0.0000       1.291640        35.1473 
 264   0.0000       1.293782        35.2056 
 265   0.0000       1.304769        35.5046 
 266   0.0000       1.326680        36.1008 
 267   0.0000       1.329609        36.1805 
 268   0.0000       1.343094        36.5474 
 269   0.0000       1.349935        36.7336 
 270   0.0000       1.352881        36.8138 
 271   0.0000       1.361256        37.0416 
 272   0.0000       1.384907        37.6852 
 273   0.0000       1.389179        37.8015 
 274   0.0000       1.397060        38.0159 
 275   0.0000       1.407249        38.2932 
 276   0.0000       1.416623        38.5483 
 277   0.0000       1.419687        38.6316 
 278   0.0000       1.430845        38.9353 
 279   0.0000       1.440276        39.1919 
 280   0.0000       1.447059        39.3765 
 281   0.0000       1.452052        39.5124 
 282   0.0000       1.461712        39.7752 
 283   0.0000       1.472770        40.0761 
 284   0.0000       1.482213        40.3331 
 285   0.0000       1.492683        40.6180 
 286   0.0000       1.498858        40.7860 
 287   0.0000       1.502532        40.8860 
 288   0.0000       1.514317        41.2067 
 289   0.0000       1.518097        41.3095 
 290   0.0000       1.523686        41.4616 
 291   0.0000       1.538243        41.8577 
 292   0.0000       1.543045        41.9884 
 293   0.0000       1.546191        42.0740 
 294   0.0000       1.551040        42.2060 
 295   0.0000       1.555442        42.3257 
 296   0.0000       1.563318        42.5401 
 297   0.0000       1.568768        42.6883 
 298   0.0000       1.580228        43.0002 
 299   0.0000       1.583291        43.0835 
 300   0.0000       1.585942        43.1557 
 301   0.0000       1.593901        43.3722 
 302   0.0000       1.595516        43.4162 
 303   0.0000       1.608653        43.7737 
 304   0.0000       1.623225        44.1702 
 305   0.0000       1.624324        44.2001 
 306   0.0000       1.637668        44.5632 
 307   0.0000       1.647498        44.8307 
 308   0.0000       1.651148        44.9300 
 309   0.0000       1.658688        45.1352 
 310   0.0000       1.667465        45.3740 
 311   0.0000       1.677857        45.6568 
 312   0.0000       1.685500        45.8648 
 313   0.0000       1.694950        46.1219 
 314   0.0000       1.697930        46.2030 
 315   0.0000       1.705655        46.4132 
 316   0.0000       1.711064        46.5604 
 317   0.0000       1.722317        46.8666 
 318   0.0000       1.734382        47.1949 
 319   0.0000       1.748708        47.5848 
 320   0.0000       1.755762        47.7767 
 321   0.0000       1.763813        47.9958 
 322   0.0000       1.771694        48.2102 
 323   0.0000       1.781755        48.4840 
 324   0.0000       1.796449        48.8839 
 325   0.0000       1.803611        49.0787 
 326   0.0000       1.814273        49.3689 
 327   0.0000       1.831851        49.8472 
 328   0.0000       1.843090        50.1530 
 329   0.0000       1.854351        50.4595 
 330   0.0000       1.874006        50.9943 
 331   0.0000       1.882229        51.2181 
 332   0.0000       1.894190        51.5435 
 333   0.0000       1.895051        51.5669 
 334   0.0000       1.919112        52.2217 
 335   0.0000       1.924127        52.3582 
 336   0.0000       1.932194        52.5777 
 337   0.0000       1.944429        52.9106 
 338   0.0000       1.967158        53.5291 
 339   0.0000       1.980346        53.8880 
 340   0.0000       1.997841        54.3640 
 341   0.0000       2.003321        54.5131 
 342   0.0000       2.013881        54.8005 
 343   0.0000       2.027364        55.1674 
 344   0.0000       2.043055        55.5943 
 345   0.0000       2.049622        55.7730 
 346   0.0000       2.061253        56.0895 
 347   0.0000       2.078294        56.5532 
 348   0.0000       2.090455        56.8842 
 349   0.0000       2.107241        57.3409 
 350   0.0000       2.120724        57.7078 
 351   0.0000       2.132586        58.0306 
 352   0.0000       2.150633        58.5217 
 353   0.0000       2.162813        58.8531 
 354   0.0000       2.182440        59.3872 
 355   0.0000       2.200407        59.8761 
 356   0.0000       2.209224        60.1160 
 357   0.0000       2.213505        60.2325 
 358   0.0000       2.232224        60.7419 
 359   0.0000       2.243524        61.0494 
 360   0.0000       2.259803        61.4924 
 361   0.0000       2.268686        61.7341 
 362   0.0000       2.277981        61.9870 
 363   0.0000       2.287185        62.2375 
 364   0.0000       2.290623        62.3310 
 365   0.0000       2.295355        62.4598 
 366   0.0000       2.309358        62.8408 
 367   0.0000       2.318362        63.0858 
 368   0.0000       2.325796        63.2881 
 369   0.0000       2.340370        63.6847 
 370   0.0000       2.343647        63.7739 
 371   0.0000       2.349379        63.9299 
 372   0.0000       2.361954        64.2720 
 373   0.0000       2.375433        64.6388 
 374   0.0000       2.388404        64.9918 
 375   0.0000       2.399389        65.2907 
 376   0.0000       2.400096        65.3099 
 377   0.0000       2.416552        65.7577 
 378   0.0000       2.421175        65.8835 
 379   0.0000       2.432118        66.1813 
 380   0.0000       2.448309        66.6219 
 381   0.0000       2.461539        66.9819 
 382   0.0000       2.462337        67.0036 
 383   0.0000       2.475606        67.3647 
 384   0.0000       2.483709        67.5852 
 385   0.0000       2.494189        67.8703 
 386   0.0000       2.526412        68.7472 
 387   0.0000       2.546607        69.2967 
 388   0.0000       2.552572        69.4590 
 389   0.0000       2.559613        69.6506 
 390   0.0000       2.587287        70.4037 
 391   0.0000       2.598021        70.6957 
 392   0.0000       2.616057        71.1865 
 393   0.0000       2.626609        71.4737 
 394   0.0000       2.648424        72.0673 
 395   0.0000       2.653569        72.2073 
 396   0.0000       2.669596        72.6434 
 397   0.0000       2.675492        72.8039 
 398   0.0000       2.681157        72.9580 
 399   0.0000       2.691477        73.2388 
 400   0.0000       2.694050        73.3088 
 401   0.0000       2.704600        73.5959 
 402   0.0000       2.718104        73.9634 
 403   0.0000       2.728278        74.2402 
 404   0.0000       2.737546        74.4924 
 405   0.0000       2.755267        74.9746 
 406   0.0000       2.761313        75.1391 
 407   0.0000       2.762920        75.1829 
 408   0.0000       2.778194        75.5985 
 409   0.0000       2.782517        75.7161 
 410   0.0000       2.801873        76.2428 
 411   0.0000       2.817551        76.6695 
 412   0.0000       2.836379        77.1818 
 413   0.0000       2.840524        77.2946 
 414   0.0000       2.850282        77.5601 
 415   0.0000       2.853270        77.6414 
 416   0.0000       2.868160        78.0466 
 417   0.0000       2.871921        78.1490 
 418   0.0000       2.887218        78.5652 
 419   0.0000       2.889446        78.6258 
 420   0.0000       2.896045        78.8054 
 421   0.0000       2.899859        78.9092 
 422   0.0000       2.921088        79.4869 
 423   0.0000       2.924166        79.5706 
 424   0.0000       2.932565        79.7992 
 425   0.0000       2.943388        80.0937 
 426   0.0000       2.955066        80.4114 
[...]
     77       0.000756  -0.000670   0.000219   0.000300   0.001082   0.000179
     78       0.303875   0.003647   0.080873   0.009781   0.113446  -0.021939
     79      -0.716154  -0.008591  -0.195803  -0.023918  -0.261073   0.047491
     80      -0.458971  -0.005506  -0.124904  -0.015105  -0.166895   0.030681
     81      -0.051498  -0.002194  -0.022099   0.006507   0.325423   0.899979
     82       0.004263   0.000204   0.001630  -0.000542  -0.024086  -0.074608
     83       0.014099   0.000621   0.005915  -0.001937  -0.087837  -0.247178
     84       0.198802   0.006839   0.083498   0.010268  -0.570486   0.215342
     85       0.215451   0.007292   0.090610   0.011267  -0.606963   0.233490
     86       0.096922   0.003211   0.040740   0.005045  -0.271131   0.104216
     87      -0.071989  -0.005819   0.265182   0.040697   0.012303  -0.002692
     88       0.203586   0.016067  -0.729367  -0.113687  -0.031732   0.007623
     89       0.116207   0.009156  -0.416217  -0.064758  -0.018056   0.004279
     90      -0.126411  -0.007188   0.323387   0.107947   0.014096  -0.000975
     91       0.020936   0.001195  -0.051570  -0.019478  -0.002145  -0.000035
     92       0.020049   0.001118  -0.050658  -0.017719  -0.002185   0.000261
     93      -0.001740  -0.000213   0.009223  -0.050480  -0.002378  -0.000748
     94       0.003838   0.000630  -0.020455   0.111581   0.005660   0.002052
     95       0.001543   0.000246  -0.007535   0.042058   0.002412   0.000512
     96       0.020897  -0.000851  -0.074732   0.429239  -0.007742  -0.003358
     97       0.024079  -0.001059  -0.087085   0.501536  -0.009208  -0.003795
     98       0.008816  -0.000391  -0.031879   0.183735  -0.003258  -0.001414
     99      -0.009364  -0.010520  -0.115762   0.669844   0.003791  -0.006991
    100       0.001092   0.001670   0.019635  -0.109445  -0.000477   0.001178
    101       0.001429   0.001764   0.019908  -0.112559  -0.000671   0.000929


-----------
IR SPECTRUM
-----------

 Mode   freq       eps      Int      T**2         TX        TY        TZ
       cm**-1   L/(mol*cm) km/mol    a.u.
----------------------------------------------------------------------------
  6:     24.65   0.000727    3.67  0.009202  ( 0.018489  0.060228 -0.072337)
  7:     34.42   0.001068    5.40  0.009681  (-0.076051 -0.061544 -0.010489)
  8:     42.23   0.000136    0.69  0.001004  ( 0.009413 -0.025624  0.016084)
  9:     54.89   0.000015    0.08  0.000085  ( 0.006159  0.005113 -0.004612)
 10:     76.05   0.000247    1.25  0.001012  ( 0.022682  0.013286  0.017908)
 11:     91.04   0.001557    7.87  0.005336  (-0.004511 -0.033266  0.064881)
 12:    103.96   0.000559    2.82  0.001677  ( 0.017883 -0.027419  0.024608)
 13:    126.14   0.000223    1.12  0.000551  (-0.018187 -0.012293  0.008287)
 14:    182.04   0.000767    3.87  0.001314  (-0.021643  0.010318  0.027194)
 15:    197.89   0.000845    4.27  0.001332  (-0.007337  0.013800 -0.032978)
 16:    208.42   0.003029   15.31  0.004535  (-0.047612  0.047601  0.001526)
 17:    234.99   0.000318    1.61  0.000422  ( 0.018492  0.008819 -0.001549)
 18:    242.90   0.001530    7.73  0.001965  (-0.006622 -0.043778 -0.002233)
 19:    261.71   0.000268    1.36  0.000320  (-0.004365 -0.017062 -0.003158)
 20:    344.98   0.002410   12.18  0.002180  (-0.034402  0.025200  0.019018)
 21:    357.58   0.000238    1.20  0.000207  ( 0.006282 -0.011743 -0.005474)
 22:    383.99   0.001766    8.92  0.001435  ( 0.028475 -0.017430 -0.017897)
 23:    402.06   0.001116    5.64  0.000866  ( 0.014043 -0.021031 -0.015057)
 24:    448.16   0.001450    7.33  0.001010  ( 0.029363 -0.007745  0.009367)
 25:    460.12   0.000098    0.50  0.000066  (-0.001496 -0.003125 -0.007379)
 26:    472.59   0.002018   10.20  0.001333  ( 0.028550 -0.018287  0.013539)
 27:    494.02   0.002711   13.70  0.001713  (-0.029313  0.021961  0.019260)
 28:    505.15   0.000658    3.33  0.000407  ( 0.011309  0.016139 -0.004286)
 29:    524.54   0.001696    8.57  0.001009  (-0.028888  0.006015  0.011773)
 30:    537.77   0.001188    6.01  0.000690  (-0.024064 -0.008041 -0.006770)
 31:    587.39   0.001463    7.39  0.000777  ( 0.027615  0.002451 -0.002962)
 32:    603.51   0.000938    4.74  0.000485  (-0.009334 -0.019073  0.005827)
 33:    624.14   0.004156   21.00  0.002078  (-0.002277  0.007450  0.044914)
 34:    675.58   0.015358   77.61  0.007094  (-0.009834 -0.046530  0.069516)
 35:    685.06   0.010080   50.94  0.004592  ( 0.033340 -0.051576  0.028638)
 36:    691.02   0.003376   17.06  0.001525  ( 0.020292 -0.016463 -0.029013)
 37:    708.85   0.002192   11.08  0.000965  (-0.006441  0.014316  0.026809)
 38:    739.83   0.009095   45.96  0.003836  ( 0.049805  0.025603 -0.026462)
 39:    751.07   0.004468   22.58  0.001856  ( 0.022809 -0.015789 -0.032967)
 40:    795.76   0.015462   78.14  0.006063  (-0.032820  0.004030  0.070499)
 41:    807.92   0.007500   37.90  0.002897  ( 0.013856 -0.021247  0.047469)
 42:    818.58   0.002854   14.42  0.001088  (-0.022239 -0.000870  0.024347)
 43:    836.12   0.011725   59.25  0.004376  ( 0.039940 -0.046319  0.025209)
 44:    836.62   0.001002    5.07  0.000374  (-0.008328  0.013591  0.010947)
 45:    843.56   0.002779   14.04  0.001028  (-0.016814 -0.026541 -0.006391)
 46:    891.84   0.000940    4.75  0.000329  (-0.008466 -0.010577  0.012053)
 47:    913.57   0.000280    1.41  0.000096  ( 0.001858  0.000294  0.009595)
 48:    922.28   0.000005    0.03  0.000002  (-0.001135 -0.000361 -0.000521)
 49:    942.84   0.001327    6.70  0.000439  ( 0.004405 -0.016612  0.011988)
 50:    970.58   0.013075   66.08  0.004204  (-0.058905  0.026647 -0.004913)
 51:    990.63   0.014044   70.97  0.004424  (-0.051754  0.038868  0.015329)
 52:   1019.87   0.029181  147.47  0.008929  (-0.057593  0.069989  0.026715)
 53:   1071.85   0.010012   50.60  0.002915  (-0.053483  0.006944 -0.002544)
 54:   1073.95   0.008621   43.57  0.002505  (-0.029169  0.039837  0.008205)
 55:   1079.70   0.024866  125.66  0.007187  ( 0.020594 -0.069205 -0.044425)
 56:   1106.75   0.046284  233.90  0.013050  ( 0.100364 -0.034830 -0.042004)
 57:   1114.96   0.176198  890.43  0.049316  (-0.143909  0.126891  0.111823)
 58:   1126.03   0.001025    5.18  0.000284  (-0.012564  0.010451  0.004109)
 59:   1130.08   0.000292    1.48  0.000081  ( 0.005098 -0.000264  0.007396)
 60:   1172.32   0.001171    5.92  0.000312  ( 0.013182 -0.008517 -0.008091)
 61:   1173.38   0.000781    3.94  0.000208  ( 0.007670 -0.012177  0.000717)
 62:   1194.46   0.025013  126.41  0.006535  ( 0.065208 -0.037165 -0.030026)
 63:   1206.47   0.004935   24.94  0.001276  ( 0.015916  0.031693  0.004311)
 64:   1247.79   0.037344  188.72  0.009339  ( 0.079769 -0.050636 -0.020305)
 65:   1255.74   0.000405    2.05  0.000101  ( 0.008684 -0.004204 -0.002746)
 66:   1275.10   0.001181    5.97  0.000289  (-0.012114 -0.005729  0.010458)
 67:   1278.51   0.005997   30.30  0.001464  ( 0.011040 -0.030575 -0.020172)
 68:   1327.75   0.015037   75.99  0.003534  (-0.034669  0.040802  0.025836)
 69:   1362.33   0.007089   35.82  0.001624  ( 0.032477  0.023085  0.006010)
 70:   1376.52   0.002033   10.27  0.000461  ( 0.018161  0.009867  0.005798)
 71:   1405.29   0.008075   40.81  0.001793  (-0.026077  0.026839  0.019820)
 72:   1412.71   0.044993  227.38  0.009939  (-0.074963  0.050335  0.042258)
 73:   1428.76   0.001605    8.11  0.000350  ( 0.013144  0.011853  0.006098)
 74:   1439.35   0.002837   14.34  0.000615  ( 0.004653 -0.002502  0.024233)
 75:   1443.01   0.000560    2.83  0.000121  (-0.005097 -0.009026 -0.003693)
 76:   1456.48   0.012336   62.34  0.002643  (-0.045672  0.023319 -0.003651)
 77:   1463.11   0.004598   23.24  0.000981  (-0.001693 -0.004146 -0.030994)
 78:   1476.52   0.000166    0.84  0.000035  (-0.003886  0.000595  0.004429)
 79:   1484.83   0.006383   32.26  0.001341  ( 0.022525  0.027428 -0.009044)
 80:   1489.33   0.002395   12.10  0.000502  (-0.014057  0.010228 -0.014125)
 81:   1501.65   0.001353    6.84  0.000281  ( 0.016553 -0.001002  0.002481)
 82:   1506.21   0.000906    4.58  0.000188  (-0.013310 -0.002679  0.001815)
 83:   1522.28   0.021588  109.09  0.004425  (-0.055919  0.035998  0.001631)
 84:   1544.19   0.002114   10.68  0.000427  ( 0.002194 -0.019074 -0.007651)
 85:   1548.69   0.003856   19.49  0.000777  (-0.027345 -0.002186  0.004956)
 86:   1561.36   0.004552   23.00  0.000910  (-0.002921 -0.022303 -0.020095)
 87:   1723.41   0.201524  1018.42  0.036491  (-0.018464 -0.026842 -0.188226)
 88:   3037.02   0.008907   45.01  0.000915  (-0.008428 -0.005025 -0.028617)
 89:   3045.80   0.016181   81.77  0.001658  ( 0.020089 -0.026869 -0.023072)
 90:   3087.78   0.012893   65.16  0.001303  (-0.025502 -0.022957  0.011210)
 91:   3091.27   0.001588    8.03  0.000160  (-0.010538 -0.006527  0.002586)
 92:   3146.55   0.004676   23.63  0.000464  ( 0.003640 -0.019556 -0.008250)
 93:   3171.95   0.000564    2.85  0.000055  (-0.003539  0.002252 -0.006156)
 94:   3173.98   0.000723    3.65  0.000071  (-0.007051  0.003869  0.002527)
 95:   3182.67   0.001723    8.71  0.000169  (-0.003841  0.011160  0.005448)
 96:   3187.28   0.000224    1.13  0.000022  (-0.000901  0.004211  0.001839)
 97:   3190.08   0.000928    4.69  0.000091  ( 0.006546 -0.006915  0.000264)
 98:   3192.53   0.002893   14.62  0.000283  (-0.009201  0.012156  0.007098)
 99:   3196.17   0.002860   14.45  0.000279  (-0.014353 -0.008117 -0.002709)
100:   3205.51   0.003688   18.64  0.000359  ( 0.005208  0.015733  0.009185)
101:   3222.62   0.000550    2.78  0.000053  (-0.006793  0.000211  0.002657)

* The epsilon (eps) is given for a Dirac delta lineshape.
** The dipole moment derivative (T) already includes vibrational overlap.

The first frequency considered to be a vibration is 6
The total number of vibrations considered is 96


--------------------------
THERMOCHEMISTRY AT 298.15K
--------------------------

Temperature         ... 298.15 K
Pressure            ... 1.00 atm
Total Mass          ... 266.30 AMU

Throughout the following assumptions are being made:
  (1) The electronic state is orbitally nondegenerate
  (2) There are no thermally accessible electronically excited states
  (3) Hindered rotations indicated by low frequency modes are not
      treated as such but are treated as vibrations and this may
      cause some error
  (4) All equations used are the standard statistical mechanics
      equations for an ideal gas
  (5) All vibrations are strictly harmonic

freq.      24.65  E(vib)   ...       0.56 
freq.      34.42  E(vib)   ...       0.54 
freq.      42.23  E(vib)   ...       0.53 
freq.      54.89  E(vib)   ...       0.52 
freq.      76.05  E(vib)   ...       0.49 
freq.      91.04  E(vib)   ...       0.47 
freq.     103.96  E(vib)   ...       0.46 
freq.     126.14  E(vib)   ...       0.43 
freq.     182.04  E(vib)   ...       0.37 
freq.     197.89  E(vib)   ...       0.35 
freq.     208.42  E(vib)   ...       0.34 
freq.     234.99  E(vib)   ...       0.32 
freq.     242.90  E(vib)   ...       0.31 
freq.     261.71  E(vib)   ...       0.30 
freq.     344.98  E(vib)   ...       0.23 
freq.     357.58  E(vib)   ...       0.22 
freq.     383.99  E(vib)   ...       0.20 
freq.     402.06  E(vib)   ...       0.19 
freq.     448.16  E(vib)   ...       0.17 
freq.     460.12  E(vib)   ...       0.16 
freq.     472.59  E(vib)   ...       0.15 
freq.     494.02  E(vib)   ...       0.14 
freq.     505.15  E(vib)   ...       0.14 
freq.     524.54  E(vib)   ...       0.13 
freq.     537.77  E(vib)   ...       0.12 
freq.     587.39  E(vib)   ...       0.10 
freq.     603.51  E(vib)   ...       0.10 
freq.     624.14  E(vib)   ...       0.09 
freq.     675.58  E(vib)   ...       0.08 
freq.     685.06  E(vib)   ...       0.07 
freq.     691.02  E(vib)   ...       0.07 
freq.     708.85  E(vib)   ...       0.07 
freq.     739.83  E(vib)   ...       0.06 
freq.     751.07  E(vib)   ...       0.06 
freq.     795.76  E(vib)   ...       0.05 
freq.     807.92  E(vib)   ...       0.05 
freq.     818.58  E(vib)   ...       0.05 
freq.     836.12  E(vib)   ...       0.04 
freq.     836.62  E(vib)   ...       0.04 
freq.     843.56  E(vib)   ...       0.04 
freq.     891.84  E(vib)   ...       0.03 
freq.     913.57  E(vib)   ...       0.03 
freq.     922.28  E(vib)   ...       0.03 
freq.     942.84  E(vib)   ...       0.03 
freq.     970.58  E(vib)   ...       0.03 
freq.     990.63  E(vib)   ...       0.02 
freq.    1019.87  E(vib)   ...       0.02 
freq.    1071.85  E(vib)   ...       0.02 
freq.    1073.95  E(vib)   ...       0.02 
freq.    1079.70  E(vib)   ...       0.02 
freq.    1106.75  E(vib)   ...       0.02 
freq.    1114.96  E(vib)   ...       0.01 
freq.    1126.03  E(vib)   ...       0.01 
freq.    1130.08  E(vib)   ...       0.01 
freq.    1172.32  E(vib)   ...       0.01 
freq.    1173.38  E(vib)   ...       0.01 
freq.    1194.46  E(vib)   ...       0.01 
freq.    1206.47  E(vib)   ...       0.01 
freq.    1247.79  E(vib)   ...       0.01 
freq.    1255.74  E(vib)   ...       0.01 
freq.    1275.10  E(vib)   ...       0.01 
freq.    1278.51  E(vib)   ...       0.01 
freq.    1327.75  E(vib)   ...       0.01 
freq.    1362.33  E(vib)   ...       0.01 
freq.    1376.52  E(vib)   ...       0.01 
freq.    1405.29  E(vib)   ...       0.00 
freq.    1412.71  E(vib)   ...       0.00 
freq.    1428.76  E(vib)   ...       0.00 
freq.    1439.35  E(vib)   ...       0.00 
freq.    1443.01  E(vib)   ...       0.00 
freq.    1456.48  E(vib)   ...       0.00 
freq.    1463.11  E(vib)   ...       0.00 
freq.    1476.52  E(vib)   ...       0.00 
freq.    1484.83  E(vib)   ...       0.00 
freq.    1489.33  E(vib)   ...       0.00 
freq.    1501.65  E(vib)   ...       0.00 
freq.    1506.21  E(vib)   ...       0.00 
freq.    1522.28  E(vib)   ...       0.00 
freq.    1544.19  E(vib)   ...       0.00 
freq.    1548.69  E(vib)   ...       0.00 
freq.    1561.36  E(vib)   ...       0.00 
freq.    1723.41  E(vib)   ...       0.00 
freq.    3037.02  E(vib)   ...       0.00 
freq.    3045.80  E(vib)   ...       0.00 
freq.    3087.78  E(vib)   ...       0.00 
freq.    3091.27  E(vib)   ...       0.00 
freq.    3146.55  E(vib)   ...       0.00 
freq.    3171.95  E(vib)   ...       0.00 
freq.    3173.98  E(vib)   ...       0.00 
freq.    3182.67  E(vib)   ...       0.00 
freq.    3187.28  E(vib)   ...       0.00 
freq.    3190.08  E(vib)   ...       0.00 
freq.    3192.53  E(vib)   ...       0.00 
freq.    3196.17  E(vib)   ...       0.00 
freq.    3205.51  E(vib)   ...       0.00 
freq.    3222.62  E(vib)   ...       0.00 

------------
INNER ENERGY
------------

The inner energy is: U= E(el) + E(ZPE) + E(vib) + E(rot) + E(trans)
    E(el)   - is the total energy from the electronic structure calculation
              = E(kin-el) + E(nuc-el) + E(el-el) + E(nuc-nuc)
    E(ZPE)  - the the zero temperature vibrational energy from the frequency calculation
    E(vib)  - the the finite temperature correction to E(ZPE) due to population
              of excited vibrational states
    E(rot)  - is the rotational thermal energy
    E(trans)- is the translational thermal energy

Summary of contributions to the inner energy U:
Electronic energy                ...   -878.30219701 Eh
Zero point energy                ...      0.26331285 Eh     165.23 kcal/mol
Thermal vibrational correction   ...      0.01482016 Eh       9.30 kcal/mol
Thermal rotational correction    ...      0.00141627 Eh       0.89 kcal/mol
Thermal translational correction ...      0.00141627 Eh       0.89 kcal/mol
-----------------------------------------------------------------------
Total thermal energy                   -878.02123145 Eh


Summary of corrections to the electronic energy:
(perhaps to be used in another calculation)
Total thermal correction                  0.01765270 Eh      11.08 kcal/mol
Non-thermal (ZPE) correction              0.26331285 Eh     165.23 kcal/mol
-----------------------------------------------------------------------
Total correction                          0.28096556 Eh     176.31 kcal/mol


--------
ENTHALPY
--------

The enthalpy is H = U + kB*T
                kB is Boltzmann's constant
Total free energy                 ...   -878.02123145 Eh 
Thermal Enthalpy correction       ...      0.00094421 Eh       0.59 kcal/mol
-----------------------------------------------------------------------
Total Enthalpy                    ...   -878.02028724 Eh


Note: Only C1 symmetry has been detected, increase convergence thresholds 
      if your molecule has a higher symmetry. Symmetry factor of 1.0 is   
      used for the rotational entropy correction. 
 

Note: Rotational entropy computed according to Herzberg 
Infrared and Raman Spectra, Chapter V,1, Van Nostrand Reinhold, 1945 
Point Group:  C1, Symmetry Number:   1  
Rotational constants in cm-1:     0.017022     0.009418     0.006473 

Vibrational entropy computed according to the QRRHO of S. Grimme
Chem.Eur.J. 2012 18 9955


-------
ENTROPY
-------

The entropy contributions are T*S = T*(S(el)+S(vib)+S(rot)+S(trans))
     S(el)   - electronic entropy
     S(vib)  - vibrational entropy
     S(rot)  - rotational entropy
     S(trans)- translational entropy
The entropies will be listed as multiplied by the temperature to get
units of energy

Electronic entropy                ...      0.00000000 Eh      0.00 kcal/mol
Vibrational entropy               ...      0.02617050 Eh     16.42 kcal/mol
Rotational entropy                ...      0.01601553 Eh     10.05 kcal/mol
Translational entropy             ...      0.02025841 Eh     12.71 kcal/mol
-----------------------------------------------------------------------
Final entropy term                ...      0.06244444 Eh     39.18 kcal/mol

In case the symmetry of your molecule has not been determined correctly
or in case you have a reason to use a different symmetry number we print 
out the resulting rotational entropy values for sn=1,12 :
 --------------------------------------------------------
|  sn= 1 | S(rot)=       0.01601553 Eh     10.05 kcal/mol|
|  sn= 2 | S(rot)=       0.01536107 Eh      9.64 kcal/mol|
|  sn= 3 | S(rot)=       0.01497824 Eh      9.40 kcal/mol|
|  sn= 4 | S(rot)=       0.01470662 Eh      9.23 kcal/mol|
|  sn= 5 | S(rot)=       0.01449593 Eh      9.10 kcal/mol|
|  sn= 6 | S(rot)=       0.01432378 Eh      8.99 kcal/mol|
|  sn= 7 | S(rot)=       0.01417824 Eh      8.90 kcal/mol|
|  sn= 8 | S(rot)=       0.01405216 Eh      8.82 kcal/mol|
|  sn= 9 | S(rot)=       0.01394095 Eh      8.75 kcal/mol|
|  sn=10 | S(rot)=       0.01384147 Eh      8.69 kcal/mol|
|  sn=11 | S(rot)=       0.01375148 Eh      8.63 kcal/mol|
|  sn=12 | S(rot)=       0.01366933 Eh      8.58 kcal/mol|
 --------------------------------------------------------


-------------------
GIBBS FREE ENERGY
-------------------

The Gibbs free energy is G = H - T*S

Total enthalpy                    ...   -878.02028724 Eh 
Total entropy correction          ...     -0.06244444 Eh    -39.18 kcal/mol
-----------------------------------------------------------------------
Final Gibbs free energy         ...   -878.08273168 Eh

For completeness - the Gibbs free energy minus the electronic energy
G-E(el)                           ...      0.21946533 Eh    137.72 kcal/mol



Timings for individual modules:

Sum of individual times         ...   186111.666 sec (=3101.861 min)
GTO integral calculation        ...       31.301 sec (=   0.522 min)   0.0 %
SCF iterations                  ...     4386.802 sec (=  73.113 min)   2.4 %
CIS module                      ...     2321.530 sec (=  38.692 min)   1.2 %
SCF Gradient evaluation         ...     7970.703 sec (= 132.845 min)   4.3 %
Geometry relaxation             ...        0.762 sec (=   0.013 min)   0.0 %
Numerical frequency calculation ...   171400.568 sec (=2856.676 min)  92.1 %
                             ****ORCA TERMINATED NORMALLY****
TOTAL RUN TIME: 2 days 3 hours 29 minutes 3 seconds 980 msec
