
                                 *****************
                                 * O   R   C   A *
                                 *****************

                                            #,                                       
                                            ###                                      
                                            ####                                     
                                            #####                                    
                                            ######                                   
                                           ########,                                 
                                     ,,################,,,,,                         
                               ,,#################################,,                 
                          ,,##########################################,,             
                       ,#########################################, ''#####,          
                    ,#############################################,,   '####,        
                  ,##################################################,,,,####,       
                ,###########''''           ''''###############################       
              ,#####''   ,,,,##########,,,,          '''####'''          '####       
            ,##' ,,,,###########################,,,                        '##       
           ' ,,###''''                  '''############,,,                           
         ,,##''                                '''############,,,,        ,,,,,,###''
      ,#''                                            '''#######################'''  
     '                                                          ''''####''''         
             ,#######,   #######,   ,#######,      ##                                
            ,#'     '#,  ##    ##  ,#'     '#,    #''#        ,####,   ,####,        
            ##       ##  ##   ,#'  ##            #'  '#       #'       #'  '#        
            ##       ##  #######   ##           ,######,      #####,   #    #        
            '#,     ,#'  ##    ##  '#,     ,#' ,#      #,     #,   #   #,  ,#        
             '#######'   ##     ##  '#######'  #'      '#     '####' # '####'        



                #########################################################
                #                        -***-                          #
                #          Department of theory and spectroscopy        #
                #                                                       #
                #                      Frank Neese                      #
                #                                                       #
                #     Directorship, Architecture, Infrastructure        #
                #                    SHARK, DRIVERS                     #
                #        Core code/Algorithms in most modules           #
                #                                                       #
                #        Max Planck Institute fuer Kohlenforschung      #
                #                Kaiser Wilhelm Platz 1                 #
                #                 D-45470 Muelheim/Ruhr                 #
                #                      Germany                          #
                #                                                       #
                #                  All rights reserved                  #
                #                        -***-                          #
                #########################################################


                         Program Version 6.0.1  -  RELEASE   -


 With contributions from (in alphabetic order):
[Max-Planck-Institut fuer Kohlenforschung]                               
  Daniel Aravena         : Magnetic Suceptibility                        
  Michael Atanasov       : Ab Initio Ligand Field Theory (pilot matlab implementation)
  Alexander A. Auer      : GIAO ZORA, VPT2 properties, NMR spectrum      
  Ute Becker             : All parallelization in ORCA, NUMFREQ, NUMCALC 
  Giovanni Bistoni       : ED, misc. LED, open-shell LED, HFLD           
  Martin Brehm           : Molecular dynamics                            
  Dmytro Bykov           : pre 5.0 version of the SCF Hessian            
  Marcos Casanova-Páez   : Triplet and SCS-CIS(D). UHF-(DLPNO)-IP/EA/STEOM-CCSD. UHF-CVS-IP/STEOM-CCSD   
  Vijay G. Chilkuri      : MRCI spin determinant printing, contributions to CSF-ICE 
  Pauline Colinet        : FMM embedding                                 
  Dipayan Datta          : RHF DLPNO-CCSD density                        
  Achintya Kumar Dutta   : EOM-CC, STEOM-CC                              
  Nicolas Foglia         : Exact transition moments, OPA infrastructure, MCD improvements    
  Dmitry Ganyushin       : Spin-Orbit,Spin-Spin,Magnetic field MRCI      
  Miquel Garcia-Rates    : C-PCM and meta-GGA Hessian, CCSD/C-PCM, Gaussian charge scheme 
  Tiago L. C. Gouveia    : GS-ROHF, GS-ROCIS                             
  Yang Guo               : DLPNO-NEVPT2, F12-NEVPT2, CIM, IAO-localization        
  Andreas Hansen         : Spin unrestricted coupled pair/coupled cluster methods 
  Ingolf Harden          : AUTO-CI MPn and infrastructure                
  Benjamin Helmich-Paris : MC-RPA, TRAH-(SCF,CASSCF), AVAS, COSX integrals, SCF dyn. polar. 
  Lee Huntington         : MR-EOM, pCC                                   
  Robert Izsak           : Overlap fitted RIJCOSX, COSX-SCS-MP3, EOM     
  Riya Kayal             : Wick's Theorem for AUTO-CI, AUTO-CI UHF-CCSDT 
  Emily Kempfer          : AUTO-CI, RHF CISDT and CCSDT                  
  Christian Kollmar      : KDIIS, OOCD, Brueckner-CCSD(T), CCSD density, CASPT2, CASPT2-K, improved NEVPT2 
  Axel Koslowski         : Symmetry handling                             
  Simone Kossmann        : meta-GGA functionals, TD-DFT gradient, OOMP2, (MP2 Hessian; deprecated post 5.0) 
  Lucas Lang             : DCDCAS                                        
  Marvin Lechner         : AUTO-CI (C++ implementation), FIC-MRCC        
  Spencer Leger          : CASSCF response                               
  Dagmar Lenk            : GEPOL surface, SMD, ORCA-2-JSON               
  Dimitrios Liakos       : Extrapolation schemes; Compound Job, initial MDCI parallelization 
  Dimitrios Manganas     : Further ROCIS development; embedding schemes. LFT, Crystal Embedding 
  Dimitrios Pantazis     : SARC Basis sets                               
  Anastasios Papadopoulos: AUTO-CI, single reference methods and gradients 
  Taras Petrenko         : pre 6.0 DFT Hessian and TD-DFT gradient, (ASA, deprecated), ECA, 1-Electron XAS/XES, NRVS 
  Peter Pinski           : DLPNO-MP2, DLPNO-MP2 Gradient                 
  Christoph Reimann      : Effective Core Potentials                     
  Marius Retegan         : Local ZFS, SOC                                
  Christoph Riplinger    : Optimizer, TS searches, QM/MM, DLPNO-CCSD(T), (RO)-DLPNO pert. Triples 
  Michael Roemelt        : Original ROCIS implementation                 
  Masaaki Saitow         : Open-shell DLPNO-CCSD energy and density      
  Barbara Sandhoefer     : DKH picture change effects                    
  Kantharuban Sivalingam : CASSCF convergence/infrastructure, NEVPT2 and variants, FIC-MRCI 
  Bernardo de Souza      : ESD, SOC TD-DFT                               
  Georgi L. Stoychev     : AutoAux, RI-MP2 NMR, DLPNO-MP2 response, X2C  
  Van Anh Tran           : RI-MP2 g-tensors                              
  Willem Van den Heuvel  : Paramagnetic NMR                              
  Zikuan Wang            : NOTCH, Electric field optimization            
  Frank Wennmohs         : Technical directorship and infrastructure     
  Hang Xu                : AUTO-CI-Response properties                   
                                                                         
[FACCTs GmbH]                                                            
  Markus Bursch, Miquel Garcia-Rates, Christoph Riplinger, Bernardo de Souza, Georgi L. Stoychev 
                                                                 
  APM, Basis sets (HGBS, AHGBS, def-TZVP (Ac-Lr), def2-XVPD (La-Lu)), CI-OPT, improved COSX, DLPNO-Multilevel,           
  DOCKER, DRACO, updates on ESD, GOAT, IRC, LR-CPCM, MBIS, meta-GGA TD-DFT gradient, ML-optimized integration grids, 
  MM, NACMEs, nearIR, NEB, NEB-TS, NL-DFT gradient (VV10), 2- and 3-layer-ONIOM, interface openCOSMO-RS, QMMM,   
  Crystal-QMMM, SF, symmetry and pop. for TD-DFT, r2SCAN hybrids, SOLVATOR                                   
                                                                         
[Other institutions]                                                     
  V. Asgeirsson          : NEB                                           
  Christoph Bannwarth    : sTDA-DFT, sTD-DFT, PBEh-3c, B97-3c, D3        
  Sebastian Ehlert       : rSCAN, r2SCAN, r2SCAN-3c, D4, dhf basis sets  
  Marvin Friede          : D4 for Fr, Ra, Ac-Lr                          
  Lars Goerigk           : TD-DFT with DH, B97 family of functionals     
  Stefan Grimme          : VdW corrections, initial TS optimization, DFT functionals, gCP, sTDA/sTD-DF 
  Waldemar Hujo          : DFT-NL                                        
  H. Jonsson             : NEB                                           
  Holger Kruse           : gCP                                           
  Marcel Mueller         : wB97X-3c, vDZP basis set                      
  Hagen Neugebauer       : wr2SCAN                                       
  Tobias Risthaus        : range-separated hybrid DFT                    
  Lukas Wittmann         : regularized MP2, r2SCAN double-hybrids, wr2SCAN        
                                                                         
We gratefully acknowledge several colleagues who have allowed us to      
interface, adapt or use parts of their codes:                            
  Ed Valeev, F. Pavosevic, A. Kumar             : LibInt (2-el integral package), F12 methods 
  Garnet Chan, S. Sharma, J. Yang, R. Olivares  : DMRG                   
  Ulf Ekstrom                                   : XCFun DFT Library      
  Mihaly Kallay                                 : mrcc  (arbitrary order and MRCC methods)
  Frank Weinhold                                : gennbo (NPA and NBO analysis)           
  Simon Mueller                                 : openCOSMO-RS                            
  Christopher J. Cramer and Donald G. Truhlar   : smd solvation model                     
  S Lehtola, MJT Oliveira, MAL Marques          : LibXC Library                           
  Liviu Ungur et al                             : ANISO software                          


 Your calculation uses the libint2 library for the computation of 2-el integrals
 For citations please refer to: http://libint.valeyev.net

 Your ORCA version has been built with support for libXC version: 6.2.2
 For citations please refer to: https://libxc.gitlab.io

 This ORCA versions uses:
   CBLAS   interface :  Fast vector & matrix operations
   LAPACKE interface :  Fast linear algebra routines
   SCALAPACK package :  Parallel linear algebra routines
   Shared memory     :  Shared parallel matrices
   BLAS/LAPACK       :  OpenBLAS 0.3.27  USE64BITINT DYNAMIC_ARCH NO_AFFINITY Zen SINGLE_THREADED
        Core in use  :  Zen
   Copyright (c) 2011-2014, The OpenBLAS Project


Warning: RI is on but no J-basis has been assigned. Assigning Def2/J (nothing to worry about!)
================================================================================

----- Orbital basis set information -----
Your calculation utilizes the basis: 6-311G*
   H, Li - Ne  : R. Krishnan, J. S. Binkley, R. Seeger and J. A. Pople, J. Chem. Phys. 72, 650 (1980).
   Na - Ar     : A. D. McLean and G. S. Chandler J. Chem. Phys. 72, 5639, (1980).
   K  - Ca     : J.-P. Blaudeau, M. P. McGrath, L. A. Curtiss and L. Radom, J. Chem. Phys. 107, 5016 (1997).
   Ga - Kr     : L. A. Curtiss, M. P. McGrath, J.-P. Blandeau, N. E. Davis, R. C. Binning and L. Radom, J. Chem. Phys. 103, 6104 (1995).
   Pol./Diff.
   H, Li - Cl  : T. Clark, J. Chandrasekhar and P. v. R. Schleyer, J. Comp. Chem. 4, 294 (1983).
   H - Ne      : M. J. Frisch, J. A. Pople and J. S. Binkley, J. Chem. Phys. 80, 3265 (1984).

----- AuxJ basis set information -----
Your calculation utilizes the auxiliary basis: def2/J
   F. Weigend, Phys. Chem. Chem. Phys. 8, 1057 (2006).

================================================================================
                                        WARNINGS
                       Please study these warnings very carefully!
================================================================================


WARNING: Geometry Optimization
  ===> : Switching off AutoStart
         For restart on a previous wavefunction, please use MOREAD

================================================================================
                                       INPUT FILE
================================================================================
NAME = 5.inp
|  1> ! B3LYP/G OPT FREQ 6-311G* CPCM(Water)
|  2> 
|  3> * xyz 0 1 
|  4> C  -3.30833244167234674649 -0.50976188362532282028 -0.47396075371457857539
|  5> C  -2.89215734536825364032 -1.41394708503931587629 -1.44925812118844232756
|  6> C  -1.55645628480307718355 -1.56130744600487503249 -1.71795118951881509162
|  7> C  -2.38539607305379863789 0.23780283363736953728 0.22377897843805333311
|  8> C  -1.00226781129143738269 0.11104210808988890236 -0.02629742307485194441
|  9> O  -2.82203863507119612208 1.10391401734429139836 1.21417761426469139607
| 10> C  -0.59608237279585718493 -0.81001354223641497398 -1.02228383353081975216
| 11> C  0.78826136893190978938 -0.96003258822461523536 -1.32705942270057475341
| 12> C  1.73237675699186244316 -0.22992000390779621100 -0.69257812070577984276
| 13> C  0.00438045195577774216 0.87705234068972837136 0.66509187809262870772
| 14> C  1.36740510500448930742 0.70537921962538252529 0.31431073484765931214
| 15> N  -0.36341684295764498103 1.73725143679689564280 1.62616955039430766128
| 16> C  0.55316531741674213052 2.44299772968971895537 2.24213723255871988371
| 17> C  1.91997143645514345422 2.35826902322869180750 1.96383697947980850884
| 18> C  2.32501381530748263415 1.47650264645202433655 0.99260464300270689897
| 19> C  -3.62209265000685265434 2.13916573009666510785 0.85713313944437641290
| 20> O  -3.98369758808850571441 2.33866191412041413145 -0.29572720963743870382
| 21> N  -3.94986438010603713167 2.90536212782469771554 1.89990198614038741098
| 22> C  -3.47195532038162912869 2.66040432172373275677 3.24358337079321357166
| 23> C  -4.85465592440695203891 4.02037507399636862004 1.73068169958727757773
| 24> H  -5.16291927388523674836 4.06580539764998505348 0.68840218687148202470
| 25> H  -4.35378944544106083470 4.95037919152647631904 2.00090041480682501174
| 26> H  -5.73029218604823320504 3.88312559349846386780 2.36578528188660497378
| 27> H  -4.21359506803003824871 2.10259646943200939617 3.81827610351842805514
| 28> H  -3.29268986456309953326 3.61977149516099583337 3.72484842443340369300
| 29> H  -2.54504114576996354202 2.09523091383374548968 3.20097317822690241584
| 30> H  -1.22327890654325988073 -2.25481307279635290186 -2.47433605229898923028
| 31> H  -4.35814476602702249863 -0.37640121933426384793 -0.26114316663269365737
| 32> H  -3.62992009456058717376 -1.98921510848638760649 -1.98540021169623948083
| 33> H  1.06034285129267624725 -1.67362401510262825965 -2.08950470735319093762
| 34> H  2.77984082129880016865 -0.33854244302704161740 -0.93100825822830313161
| 35> H  0.18156989441341031544 3.11502784862853676628 3.00438686652380093633
| 36> H  2.62508952998380840071 2.96789187627734118990 2.50507017488828065410
| 37> H  3.36881705652798446593 1.36140909118569197744 0.73883800523316489617
| 38> *
| 39> 
| 40>                          ****END OF INPUT****
================================================================================

                       *****************************
                       * Geometry Optimization Run *
                       *****************************

Geometry optimization settings:
Update method            Update   .... BFGS
Choice of coordinates    CoordSys .... (2022) Redundant Internals
Initial Hessian          InHess   .... Almloef's Model
Max. no of cycles        MaxIter  .... 102

Convergence Tolerances:
Energy Change            TolE     ....  5.0000e-06 Eh
Max. Gradient            TolMAXG  ....  3.0000e-04 Eh/bohr
RMS Gradient             TolRMSG  ....  1.0000e-04 Eh/bohr
Max. Displacement        TolMAXD  ....  4.0000e-03 bohr
RMS Displacement         TolRMSD  ....  2.0000e-03 bohr
Strict Convergence                .... False

------------------------------------------------------------------------------
                        ORCA OPTIMIZATION COORDINATE SETUP
------------------------------------------------------------------------------

The optimization will be done in redundant internal coordinates (2022)
Making redundant internal coordinates   ...  (2022 redundants) done
Evaluating the initial hessian          ...  (Almloef) done
Evaluating the coordinates              ...  done
Calculating the B-matrix                .... done
Calculating the G-matrix                .... done
Diagonalizing the G-matrix              .... done
Small eigenvalue found = 3.107e-03
Small eigenvalue found = 7.477e-03
Small eigenvalue found = 1.384e-02
Small eigenvalue found = 2.450e-02
The first mode is                       ....   77
The number of degrees of freedom        ....   96

    -----------------------------------------------------------------
                    Redundant Internal Coordinates


    -----------------------------------------------------------------
         Definition                    Initial Value    Approx d2E/dq
    -----------------------------------------------------------------
      1. B(C   1,C   0)                  1.3935         0.616721   
      2. B(C   2,C   1)                  1.3704         0.671432   
      3. B(C   3,C   0)                  1.3775         0.654157   
      4. B(C   4,C   3)                  1.4113         0.577859   
      5. B(O   5,C   3)                  1.3863         0.567355   
      6. B(C   6,C   4)                  1.4161         0.567687   
      7. B(C   6,C   2)                  1.4038         0.593865   
      8. B(C   7,C   6)                  1.4254         0.548580   
      9. B(C   8,C   7)                  1.3517         0.719296   
     10. B(C   9,C   4)                  1.4416         0.516961   
     11. B(C  10,C   9)                  1.4179         0.563993   
     12. B(C  10,C   8)                  1.4219         0.555694   
     13. B(N  11,C   9)                  1.3412         0.669408   
     14. B(C  12,N  11)                  1.3106         0.749181   
     15. B(C  13,C  12)                  1.3974         0.607991   
     16. B(C  14,C  13)                  1.3729         0.665296   
     17. B(C  14,C  10)                  1.4042         0.593077   
     18. B(C  15,O   5)                  1.3562         0.633550   
     19. B(O  16,C  15)                  1.2246         1.027452   
     20. B(N  17,C  15)                  1.3349         0.685242   
     21. B(C  18,N  17)                  1.4470         0.453833   
     22. B(C  19,N  17)                  1.4459         0.455764   
     23. B(H  20,C  19)                  1.0879         0.362944   
     24. B(H  21,C  19)                  1.0903         0.359680   
     25. B(H  22,C  19)                  1.0904         0.359595   
     26. B(H  23,C  18)                  1.0915         0.358074   
     27. B(H  24,C  18)                  1.0882         0.362515   
     28. B(H  25,C  18)                  1.0865         0.364807   
     29. B(H  26,C   2)                  1.0789         0.375055   
     30. B(H  27,C   0)                  1.0794         0.374349   
     31. B(H  28,C   1)                  1.0783         0.375951   
     32. B(H  29,C   7)                  1.0791         0.374744   
     33. B(H  30,C   8)                  1.0797         0.373938   
     34. B(H  31,C  12)                  1.0820         0.370835   
     35. B(H  32,C  13)                  1.0779         0.376534   
     36. B(H  33,C  14)                  1.0804         0.373086   
     37. A(C   1,C   0,C   3)          120.4330         0.437861   
     38. A(C   3,C   0,H  27)          118.9933         0.358489   
     39. A(C   1,C   0,H  27)          120.5703         0.354918   
     40. A(C   2,C   1,H  28)          120.7986         0.360345   
     41. A(C   0,C   1,C   2)          119.8728         0.439925   
     42. A(C   0,C   1,H  28)          119.3285         0.355175   
     43. A(C   1,C   2,H  26)          120.5013         0.360199   
     44. A(C   1,C   2,C   6)          120.8025         0.436938   
     45. A(C   6,C   2,H  26)          118.6953         0.352767   
     46. A(C   4,C   3,O   5)          119.4340         0.419120   
     47. A(C   0,C   3,C   4)          121.2083         0.432759   
     48. A(C   0,C   3,O   5)          119.3349         0.428518   
     49. A(C   3,C   4,C   9)          123.4813         0.414925   
     50. A(C   3,C   4,C   6)          117.6566         0.421903   
     51. A(C   6,C   4,C   9)          118.8581         0.413617   
     52. A(C   3,O   5,C  15)          118.3365         0.423294   
     53. A(C   4,C   6,C   7)          119.8287         0.418009   
     54. A(C   2,C   6,C   7)          120.1404         0.421383   
     55. A(C   2,C   6,C   4)          120.0266         0.423969   
     56. A(C   6,C   7,H  29)          117.7440         0.348025   
     57. A(C   6,C   7,C   8)          121.4090         0.436116   
     58. A(C   8,C   7,H  29)          120.8455         0.364407   
     59. A(C   7,C   8,H  30)          121.3063         0.364273   
     60. A(C  10,C   8,H  30)          118.1350         0.348655   
     61. A(C   7,C   8,C  10)          120.5587         0.437130   
     62. A(C   4,C   9,C  10)          119.2286         0.413138   
     63. A(C  10,C   9,N  11)          121.2350         0.429835   
     64. A(C   4,C   9,N  11)          119.5364         0.423183   
     65. A(C   9,C  10,C  14)          118.0077         0.423373   
     66. A(C   8,C  10,C  14)          121.8868         0.422253   
     67. A(C   8,C  10,C   9)          120.1048         0.418482   
     68. A(C   9,N  11,C  12)          119.3647         0.449468   
     69. A(N  11,C  12,H  31)          115.1745         0.364015   
     70. A(N  11,C  12,C  13)          123.9037         0.444627   
     71. A(C  13,C  12,H  31)          120.9217         0.353496   
     72. A(C  12,C  13,H  32)          120.3685         0.354411   
     73. A(C  12,C  13,C  14)          117.9299         0.438069   
     74. A(C  14,C  13,H  32)          121.7009         0.359877   
     75. A(C  10,C  14,H  33)          119.1388         0.352374   
     76. A(C  10,C  14,C  13)          119.5534         0.436112   
     77. A(C  13,C  14,H  33)          121.3078         0.359314   
     78. A(O  16,C  15,N  17)          124.7087         0.478235   
     79. A(O   5,C  15,N  17)          112.1692         0.437887   
     80. A(O   5,C  15,O  16)          123.1197         0.471386   
     81. A(C  18,N  17,C  19)          116.4810         0.383990   
     82. A(C  15,N  17,C  19)          120.3230         0.412825   
     83. A(C  15,N  17,C  18)          123.1701         0.412514   
     84. A(H  24,C  18,H  25)          109.5978         0.291740   
     85. A(H  23,C  18,H  25)          109.5410         0.291175   
     86. A(N  17,C  18,H  25)          109.4760         0.333610   
     87. A(H  23,C  18,H  24)          109.2454         0.290887   
     88. A(N  17,C  18,H  24)          108.4117         0.333261   
     89. A(N  17,C  18,H  23)          110.5489         0.332581   
     90. A(H  21,C  19,H  22)          109.3851         0.290722   
     91. A(H  20,C  19,H  22)          109.6183         0.291135   
     92. A(N  17,C  19,H  22)          109.7121         0.333049   
     93. A(H  20,C  19,H  21)          109.3903         0.291146   
     94. A(N  17,C  19,H  21)          109.9567         0.333062   
     95. A(N  17,C  19,H  20)          108.7635         0.333562   
     96. D(H  28,C   1,C   0,C   3)   -179.9335         0.026302   
     97. D(C   2,C   1,C   0,C   3)     -0.0351         0.026302   
     98. D(H  28,C   1,C   0,H  27)     -0.6063         0.026302   
     99. D(C   2,C   1,C   0,H  27)    179.2921         0.026302   
    100. D(C   6,C   2,C   1,C   0)     -0.0545         0.031539   
    101. D(H  26,C   2,C   1,C   0)   -179.6959         0.031539   
    102. D(C   6,C   2,C   1,H  28)    179.8424         0.031539   
    103. D(H  26,C   2,C   1,H  28)      0.2010         0.031539   
    104. D(O   5,C   3,C   0,C   1)   -178.2633         0.029822   
    105. D(C   4,C   3,C   0,H  27)   -179.3451         0.029822   
    106. D(C   4,C   3,C   0,C   1)     -0.0074         0.029822   
    107. D(O   5,C   3,C   0,H  27)      2.3990         0.029822   
    108. D(C   6,C   4,C   3,O   5)    178.3883         0.022934   
    109. D(C   9,C   4,C   3,C   0)    179.3946         0.022934   
    110. D(C   9,C   4,C   3,O   5)     -2.3511         0.022934   
    111. D(C   6,C   4,C   3,C   0)      0.1340         0.022934   
    112. D(C  15,O   5,C   3,C   4)    118.5891         0.023353   
    113. D(C  15,O   5,C   3,C   0)    -63.1237         0.023353   
    114. D(C   7,C   6,C   4,C   9)     -0.2660         0.022099   
    115. D(C   7,C   6,C   4,C   3)    179.0298         0.022099   
    116. D(C   2,C   6,C   4,C   9)   -179.5162         0.022099   
    117. D(C   2,C   6,C   4,C   3)     -0.2204         0.022099   
    118. D(C   7,C   6,C   2,H  26)      0.5853         0.024286   
    119. D(C   7,C   6,C   2,C   1)   -179.0625         0.024286   
    120. D(C   4,C   6,C   2,H  26)    179.8331         0.024286   
    121. D(C   4,C   6,C   2,C   1)      0.1853         0.024286   
    122. D(H  29,C   7,C   6,C   4)    179.8090         0.020583   
    123. D(H  29,C   7,C   6,C   2)     -0.9417         0.020583   
    124. D(C   8,C   7,C   6,C   4)     -0.6236         0.020583   
    125. D(C   8,C   7,C   6,C   2)    178.6257         0.020583   
    126. D(C  10,C   8,C   7,C   6)      0.6599         0.036612   
    127. D(H  30,C   8,C   7,H  29)      0.1098         0.036612   
    128. D(H  30,C   8,C   7,C   6)   -179.4442         0.036612   
    129. D(C  10,C   8,C   7,H  29)   -179.7861         0.036612   
    130. D(N  11,C   9,C   4,C   6)   -178.9091         0.018221   
    131. D(N  11,C   9,C   4,C   3)      1.8386         0.018221   
    132. D(C  10,C   9,C   4,C   6)      1.0913         0.018221   
    133. D(C  10,C   9,C   4,C   3)   -178.1609         0.018221   
    134. D(C  14,C  10,C   9,N  11)     -0.7747         0.021801   
    135. D(C  14,C  10,C   9,C   4)    179.2248         0.021801   
    136. D(C   8,C  10,C   9,N  11)    178.9262         0.021801   
    137. D(C   8,C  10,C   9,C   4)     -1.0742         0.021801   
    138. D(C  14,C  10,C   8,H  30)     -0.0092         0.021140   
    139. D(C  14,C  10,C   8,C   7)    179.8899         0.021140   
    140. D(C   9,C  10,C   8,H  30)   -179.6983         0.021140   
    141. D(C   9,C  10,C   8,C   7)      0.2008         0.021140   
    142. D(C  12,N  11,C   9,C  10)      0.7651         0.033283   
    143. D(C  12,N  11,C   9,C   4)   -179.2345         0.033283   
    144. D(H  31,C  12,N  11,C   9)    179.9790         0.042618   
    145. D(C  13,C  12,N  11,C   9)     -0.1624         0.042618   
    146. D(H  32,C  13,C  12,H  31)     -0.2685         0.025520   
    147. D(H  32,C  13,C  12,N  11)    179.8806         0.025520   
    148. D(C  14,C  13,C  12,H  31)    179.4341         0.025520   
    149. D(C  14,C  13,C  12,N  11)     -0.4168         0.025520   
    150. D(H  33,C  14,C  13,H  32)      0.1719         0.030922   
    151. D(H  33,C  14,C  13,C  12)   -179.5265         0.030922   
    152. D(C  10,C  14,C  13,H  32)   -179.9235         0.030922   
    153. D(C  10,C  14,C  13,C  12)      0.3781         0.030922   
    154. D(H  33,C  14,C  10,C   9)   -179.9111         0.024219   
    155. D(H  33,C  14,C  10,C   8)      0.3936         0.024219   
    156. D(C  13,C  14,C  10,C   9)      0.1822         0.024219   
    157. D(C  13,C  14,C  10,C   8)   -179.5131         0.024219   
    158. D(O  16,C  15,O   5,C   3)      0.5293         0.029544   
    159. D(N  17,C  15,O   5,C   3)   -178.9375         0.029544   
    160. D(C  19,N  17,C  15,O  16)      3.7554         0.038694   
    161. D(C  19,N  17,C  15,O   5)   -176.7878         0.038694   
    162. D(C  18,N  17,C  15,O  16)   -178.1616         0.038694   
    163. D(C  18,N  17,C  15,O   5)      1.2952         0.038694   
    164. D(H  25,C  18,N  17,C  15)     23.9643         0.017574   
    165. D(H  24,C  18,N  17,C  19)    -38.3669         0.017574   
    166. D(H  24,C  18,N  17,C  15)    143.4818         0.017574   
    167. D(H  23,C  18,N  17,C  19)     81.3548         0.017574   
    168. D(H  23,C  18,N  17,C  15)    -96.7965         0.017574   
    169. D(H  22,C  19,N  17,C  15)    120.2730         0.017726   
    170. D(H  21,C  19,N  17,C  18)     62.4105         0.017726   
    171. D(H  21,C  19,N  17,C  15)   -119.3822         0.017726   
    172. D(H  20,C  19,N  17,C  18)   -177.8278         0.017726   
    173. D(H  20,C  19,N  17,C  15)      0.3795         0.017726   
    -----------------------------------------------------------------

Number of atoms                         .... 34
Number of degrees of freedom            .... 173


         *************************************************************
         *                GEOMETRY OPTIMIZATION CYCLE   1            *
         *************************************************************
---------------------------------
CARTESIAN COORDINATES (ANGSTROEM)
---------------------------------
  C     -3.308332   -0.509762   -0.473961
  C     -2.892157   -1.413947   -1.449258
  C     -1.556456   -1.561307   -1.717951
  C     -2.385396    0.237803    0.223779
  C     -1.002268    0.111042   -0.026297
  O     -2.822039    1.103914    1.214178
  C     -0.596082   -0.810014   -1.022284
  C      0.788261   -0.960033   -1.327059
  C      1.732377   -0.229920   -0.692578
  C      0.004380    0.877052    0.665092
  C      1.367405    0.705379    0.314311
  N     -0.363417    1.737251    1.626170
  C      0.553165    2.442998    2.242137
  C      1.919971    2.358269    1.963837
  C      2.325014    1.476503    0.992605
  C     -3.622093    2.139166    0.857133
  O     -3.983698    2.338662   -0.295727
  N     -3.949864    2.905362    1.899902
  C     -3.471955    2.660404    3.243583
  C     -4.854656    4.020375    1.730682
  H     -5.162919    4.065805    0.688402
  H     -4.353789    4.950379    2.000900
  H     -5.730292    3.883126    2.365785
  H     -4.213595    2.102596    3.818276
  H     -3.292690    3.619771    3.724848
  H     -2.545041    2.095231    3.200973
  H     -1.223279   -2.254813   -2.474336
  H     -4.358145   -0.376401   -0.261143
  H     -3.629920   -1.989215   -1.985400
  H      1.060343   -1.673624   -2.089505
  H      2.779841   -0.338542   -0.931008
  H      0.181570    3.115028    3.004387
  H      2.625090    2.967892    2.505070
  H      3.368817    1.361409    0.738838

----------------------------
CARTESIAN COORDINATES (A.U.)
----------------------------
  NO LB      ZA    FRAG     MASS         X           Y           Z
   0 C     6.0000    0    12.011   -6.251842   -0.963310   -0.895656
   1 C     6.0000    0    12.011   -5.465385   -2.671973   -2.738701
   2 C     6.0000    0    12.011   -2.941276   -2.950443   -3.246457
   3 C     6.0000    0    12.011   -4.507745    0.449382    0.422881
   4 C     6.0000    0    12.011   -1.894012    0.209839   -0.049695
   5 O     8.0000    0    15.999   -5.332880    2.086095    2.294463
   6 C     6.0000    0    12.011   -1.126432   -1.530704   -1.931836
   7 C     6.0000    0    12.011    1.489598   -1.814199   -2.507779
   8 C     6.0000    0    12.011    3.273718   -0.434486   -1.308783
   9 C     6.0000    0    12.011    0.008278    1.657389    1.256842
  10 C     6.0000    0    12.011    2.584021    1.332974    0.593961
  11 N     7.0000    0    14.007   -0.686758    3.282929    3.073015
  12 C     6.0000    0    12.011    1.045331    4.616597    4.237025
  13 C     6.0000    0    12.011    3.628220    4.456483    3.711114
  14 C     6.0000    0    12.011    4.393639    2.790186    1.875751
  15 C     6.0000    0    12.011   -6.844763    4.042437    1.619747
  16 O     8.0000    0    15.999   -7.528097    4.419431   -0.558843
  17 N     7.0000    0    14.007   -7.464162    5.490339    3.590294
  18 C     6.0000    0    12.011   -6.561045    5.027436    6.129484
  19 C     6.0000    0    12.011   -9.173970    7.597408    3.270514
  20 H     1.0000    0     1.008   -9.756503    7.683259    1.300892
  21 H     1.0000    0     1.008   -8.227470    9.354861    3.781154
  22 H     1.0000    0     1.008  -10.828683    7.338044    4.470686
  23 H     1.0000    0     1.008   -7.962541    3.973331    7.215496
  24 H     1.0000    0     1.008   -6.222282    6.840377    7.038943
  25 H     1.0000    0     1.008   -4.809431    3.959413    6.048963
  26 H     1.0000    0     1.008   -2.311662   -4.260979   -4.675818
  27 H     1.0000    0     1.008   -8.235700   -0.711295   -0.493489
  28 H     1.0000    0     1.008   -6.859555   -3.759072   -3.751863
  29 H     1.0000    0     1.008    2.003758   -3.162691   -3.948592
  30 H     1.0000    0     1.008    5.253138   -0.639753   -1.759351
  31 H     1.0000    0     1.008    0.343117    5.886550    5.677468
  32 H     1.0000    0     1.008    4.960700    5.608503    4.733897
  33 H     1.0000    0     1.008    6.366142    2.572690    1.396201

--------------------------------
INTERNAL COORDINATES (ANGSTROEM)
--------------------------------
 C      0   0   0     0.000000000000     0.00000000     0.00000000
 C      1   0   0     1.393541367969     0.00000000     0.00000000
 C      2   1   0     1.370404452761   119.87275123     0.00000000
 C      1   2   3     1.377499648217   120.43301038   359.96493066
 C      4   1   2     1.411258401789   121.20829279     0.00000000
 O      4   1   2     1.386252057656   119.33494019   181.73666602
 C      3   2   1     1.403821089345   120.80246472   359.94553608
 C      7   3   2     1.425412736429   120.14043659   180.93745088
 C      8   7   3     1.351660006929   121.40904608   178.62566342
 C      5   4   1     1.441572602443   123.48127615   179.39464178
 C     10   5   4     1.417869978443   119.22857921   181.83905487
 N     10   5   4     1.341226165598   119.53640456     1.83863981
 C     12  10   5     1.310578830944   119.36470927   180.76552731
 C     13  12  10     1.397422252436   123.90365319   359.83763546
 C     14  13  12     1.372903318992   117.92988265   359.58323311
 C      6   4   1     1.356212849287   118.33646962   296.87634653
 O     16   6   4     1.224599462343   123.11972647     0.52930672
 N     16   6   4     1.334862575168   112.16921695   181.06248664
 C     18  16   6     1.447024899440   123.17009963     1.29517455
 C     18  16   6     1.445868982360   120.32302830   183.21216946
 H     20  18  16     1.087858809573   108.76353188     0.37952055
 H     20  18  16     1.090317863024   109.95670353   240.61778993
 H     20  18  16     1.090381971076   109.71210509   120.27301348
 H     19  18  16     1.091536006011   110.54886204   263.20349038
 H     19  18  16     1.088180834684   108.41174280   143.48178255
 H     19  18  16     1.086465138232   109.47595317    23.96428603
 H      3   2   1     1.078923204134   120.50132559   180.30409590
 H      1   2   3     1.079436106733   120.57031294   179.29209595
 H      2   1   3     1.078274322290   119.32853503   180.10158366
 H      8   7   3     1.079149604849   117.74399909   359.05834913
 H      9   8   7     1.079735491115   121.30626477   180.55579107
 H     13  12  10     1.082003763227   115.17451937   179.97902307
 H     14  13  12     1.077851993825   120.36853794   179.88064858
 H     15  14  13     1.080356070604   121.30782593   180.47345891

---------------------------
INTERNAL COORDINATES (A.U.)
---------------------------
 C      0   0   0     0.000000000000     0.00000000     0.00000000
 C      1   0   0     2.633411541752     0.00000000     0.00000000
 C      2   1   0     2.589689108425   119.87275123     0.00000000
 C      1   2   3     2.603097084704   120.43301038   359.96493066
 C      4   1   2     2.666891883577   121.20829279     0.00000000
 O      4   1   2     2.619636741554   119.33494019   181.73666602
 C      3   2   1     2.652837399886   120.80246472   359.94553608
 C      7   3   2     2.693639699654   120.14043659   180.93745088
 C      8   7   3     2.554267239269   121.40904608   178.62566342
 C      5   4   1     2.724177420782   123.48127615   179.39464178
 C     10   5   4     2.679385952767   119.22857921   181.83905487
 N     10   5   4     2.534550136630   119.53640456     1.83863981
 C     12  10   5     2.476635067400   119.36470927   180.76552731
 C     13  12  10     2.640745350551   123.90365319   359.83763546
 C     14  13  12     2.594411281246   117.92988265   359.58323311
 C      6   4   1     2.562870864457   118.33646962   296.87634653
 O     16   6   4     2.314157607575   123.11972647     0.52930672
 N     16   6   4     2.522524693488   112.16921695   181.06248664
 C     18  16   6     2.734480768906   123.17009963     1.29517455
 C     18  16   6     2.732296402191   120.32302830   183.21216946
 H     20  18  16     2.055755222467   108.76353188     0.37952055
 H     20  18  16     2.060402160038   109.95670353   240.61778993
 H     20  18  16     2.060523306699   109.71210509   120.27301348
 H     19  18  16     2.062704116674   110.54886204   263.20349038
 H     19  18  16     2.056363761735   108.41174280   143.48178255
 H     19  18  16     2.053121565311   109.47595317    23.96428603
 H      3   2   1     2.038869375346   120.50132559   180.30409590
 H      1   2   3     2.039838620791   120.57031294   179.29209595
 H      2   1   3     2.037643166368   119.32853503   180.10158366
 H      8   7   3     2.039297210695   117.74399909   359.05834913
 H      9   8   7     2.040404375283   121.30626477   180.55579107
 H     13  12  10     2.044690788372   115.17451937   179.97902307
 H     14  13  12     2.036845081230   120.36853794   179.88064858
 H     15  14  13     2.041577100561   121.30782593   180.47345891

---------------------
BASIS SET INFORMATION
---------------------
There are 4 groups of distinct atoms

 Group   1 Type C   : 11s5p1d contracted to 4s3p1d pattern {6311/311/1}
 Group   2 Type O   : 11s5p1d contracted to 4s3p1d pattern {6311/311/1}
 Group   3 Type N   : 11s5p1d contracted to 4s3p1d pattern {6311/311/1}
 Group   4 Type H   : 5s contracted to 3s pattern {311}

Atom   0C    basis set group =>   1
Atom   1C    basis set group =>   1
Atom   2C    basis set group =>   1
Atom   3C    basis set group =>   1
Atom   4C    basis set group =>   1
Atom   5O    basis set group =>   2
Atom   6C    basis set group =>   1
Atom   7C    basis set group =>   1
Atom   8C    basis set group =>   1
Atom   9C    basis set group =>   1
Atom  10C    basis set group =>   1
Atom  11N    basis set group =>   3
Atom  12C    basis set group =>   1
Atom  13C    basis set group =>   1
Atom  14C    basis set group =>   1
Atom  15C    basis set group =>   1
Atom  16O    basis set group =>   2
Atom  17N    basis set group =>   3
Atom  18C    basis set group =>   1
Atom  19C    basis set group =>   1
Atom  20H    basis set group =>   4
Atom  21H    basis set group =>   4
Atom  22H    basis set group =>   4
Atom  23H    basis set group =>   4
Atom  24H    basis set group =>   4
Atom  25H    basis set group =>   4
Atom  26H    basis set group =>   4
Atom  27H    basis set group =>   4
Atom  28H    basis set group =>   4
Atom  29H    basis set group =>   4
Atom  30H    basis set group =>   4
Atom  31H    basis set group =>   4
Atom  32H    basis set group =>   4
Atom  33H    basis set group =>   4
---------------------------------
AUXILIARY/J BASIS SET INFORMATION
---------------------------------
There are 4 groups of distinct atoms

 Group   1 Type C   : 12s5p4d2f1g contracted to 6s4p3d1f1g pattern {711111/2111/211/2/1}
 Group   2 Type O   : 12s5p4d2f1g contracted to 6s4p3d1f1g pattern {711111/2111/211/2/1}
 Group   3 Type N   : 12s5p4d2f1g contracted to 6s4p3d1f1g pattern {711111/2111/211/2/1}
 Group   4 Type H   : 5s2p1d contracted to 3s1p1d pattern {311/2/1}

Atom   0C    basis set group =>   1
Atom   1C    basis set group =>   1
Atom   2C    basis set group =>   1
Atom   3C    basis set group =>   1
Atom   4C    basis set group =>   1
Atom   5O    basis set group =>   2
Atom   6C    basis set group =>   1
Atom   7C    basis set group =>   1
Atom   8C    basis set group =>   1
Atom   9C    basis set group =>   1
Atom  10C    basis set group =>   1
Atom  11N    basis set group =>   3
Atom  12C    basis set group =>   1
Atom  13C    basis set group =>   1
Atom  14C    basis set group =>   1
Atom  15C    basis set group =>   1
Atom  16O    basis set group =>   2
Atom  17N    basis set group =>   3
Atom  18C    basis set group =>   1
Atom  19C    basis set group =>   1
Atom  20H    basis set group =>   4
Atom  21H    basis set group =>   4
Atom  22H    basis set group =>   4
Atom  23H    basis set group =>   4
Atom  24H    basis set group =>   4
Atom  25H    basis set group =>   4
Atom  26H    basis set group =>   4
Atom  27H    basis set group =>   4
Atom  28H    basis set group =>   4
Atom  29H    basis set group =>   4
Atom  30H    basis set group =>   4
Atom  31H    basis set group =>   4
Atom  32H    basis set group =>   4
Atom  33H    basis set group =>   4
------------------------------------------------------------------------------
                             ORCA STARTUP CALCULATIONS
                           -- RI-GTO INTEGRALS CHOSEN --
------------------------------------------------------------------------------
------------------------------------------------------------------------------
                   ___                                                        
                  /   \      - P O W E R E D   B Y -                         
                 /     \                                                     
                 |  |  |   _    _      __       _____    __    __             
                 |  |  |  | |  | |    /  \     |  _  \  |  |  /  |          
                  \  \/   | |  | |   /    \    | | | |  |  | /  /          
                 / \  \   | |__| |  /  /\  \   | |_| |  |  |/  /          
                |  |  |   |  __  | /  /__\  \  |    /   |      \           
                |  |  |   | |  | | |   __   |  |    \   |  |\   \          
                \     /   | |  | | |  |  |  |  | |\  \  |  | \   \       
                 \___/    |_|  |_| |__|  |__|  |_| \__\ |__|  \__/        
                                                                              
                      - O R C A' S   B I G   F R I E N D -                    
                                      &                                       
                       - I N T E G R A L  F E E D E R -                       
                                                                              
 v1 FN, 2020, v2 2021, v3 2022-2024                                           
------------------------------------------------------------------------------


----------------------
SHARK INTEGRAL PACKAGE
----------------------

Number of atoms                             ...     34
Number of basis functions                   ...    402
Number of shells                            ...    202
Maximum angular momentum                    ...      2
Integral batch strategy                     ... SHARK/LIBINT Hybrid
RI-J (if used) integral strategy            ... SPLIT-RIJ (Revised 2003 algorithm where possible)
Printlevel                                  ...      1
Contraction scheme used                     ... SEGMENTED contraction
Prescreening option                         ... SCHWARTZ
   Thresh                                   ... 2.500e-11
   Tcut                                     ... 2.500e-12
   Tpresel                                  ... 2.500e-12 
Coulomb Range Separation                    ... NOT USED
Exchange Range Separation                   ... NOT USED
Multipole approximations                    ... NOT USED
Finite Nucleus Model                        ... NOT USED
CABS basis                                  ... NOT available
Auxiliary Coulomb fitting basis             ... AVAILABLE
   # of basis functions in Aux-J            ...   1134
   # of shells in Aux-J                     ...    370
   Maximum angular momentum in Aux-J        ...      4
Auxiliary J/K fitting basis                 ... NOT available
Auxiliary Correlation fitting basis         ... NOT available
Auxiliary 'external' fitting basis          ... NOT available

Checking pre-screening integrals            ... done (  0.0 sec) Dimension = 202
Check shell pair data                       ... done (  0.0 sec)
Shell pair information
Shell pair cut-off parameter TPreSel        ...   2.5e-12
Total number of shell pairs                 ...     20503
Shell pairs after pre-screening             ...     14898
Total number of primitive shell pairs       ...     84717
Primitive shell pairs kept                  ...     37300
          la=0 lb=0:   5095 shell pairs
          la=1 lb=0:   5530 shell pairs
          la=1 lb=1:   1514 shell pairs
          la=2 lb=0:   1660 shell pairs
          la=2 lb=1:    942 shell pairs
          la=2 lb=2:    157 shell pairs

Calculating one electron integrals          ... done (  0.1 sec)
Calculating RI/J V-Matrix + Cholesky decomp.... done (  0.2 sec)
Calculating Nuclear repulsion               ... done (  0.0 sec) ENN=   1507.001283584149 Eh

Diagonalization of the overlap matrix:
Smallest eigenvalue                        ... 7.781e-05
Time for diagonalization                   ...    0.024 sec
Threshold for overlap eigenvalues          ... 1.000e-07
Number of eigenvalues below threshold      ... 0
Time for construction of square roots      ...    0.021 sec
Total time needed                          ...    0.063 sec

-------------------
DFT GRID GENERATION
-------------------

General Integration Accuracy     IntAcc      ... 4.388
Radial Grid Type                 RadialGrid  ... OptM3 with GC (2021)
Angular Grid (max. ang.)         AngularGrid ... 4 (Lebedev-302)
Angular grid pruning method      GridPruning ... 4 (adaptive)
Weight generation scheme         WeightScheme... mBecke (2022)
Basis function cutoff            BFCut       ... 1.0000e-11
Integration weight cutoff        WCut        ... 1.0000e-14
Partially contracted basis set               ... off
Rotationally invariant grid construction     ... off
Angular grids for H and He will be reduced by one unit

Total number of grid points                  ...   164443
Total number of batches                      ...     2589
Average number of points per batch           ...       63
Average number of grid points per atom       ...     4837

--------------------
COSX GRID GENERATION
--------------------

GRIDX 1
-------
General Integration Accuracy     IntAcc      ... 3.816
Radial Grid Type                 RadialGrid  ... OptM3 with GC (2021)
Angular Grid (max. ang.)         AngularGrid ... 1 (Lebedev-50)
Angular grid pruning method      GridPruning ... 4 (adaptive)
Weight generation scheme         WeightScheme... mBecke (2022)
Basis function cutoff            BFCut       ... 1.0000e-11
Integration weight cutoff        WCut        ... 1.0000e-14
Partially contracted basis set               ... on
Rotationally invariant grid construction     ... off
Angular grids for H and He will be reduced by one unit

Total number of grid points                  ...    20910
Total number of batches                      ...      180
Average number of points per batch           ...      116
Average number of grid points per atom       ...      615
UseSFitting                                  ... on

GRIDX 2
-------
General Integration Accuracy     IntAcc      ... 4.020
Radial Grid Type                 RadialGrid  ... OptM3 with GC (2021)
Angular Grid (max. ang.)         AngularGrid ... 2 (Lebedev-110)
Angular grid pruning method      GridPruning ... 4 (adaptive)
Weight generation scheme         WeightScheme... mBecke (2022)
Basis function cutoff            BFCut       ... 1.0000e-11
Integration weight cutoff        WCut        ... 1.0000e-14
Partially contracted basis set               ... on
Rotationally invariant grid construction     ... off
Angular grids for H and He will be reduced by one unit

Total number of grid points                  ...    45680
Total number of batches                      ...      372
Average number of points per batch           ...      122
Average number of grid points per atom       ...     1344
UseSFitting                                  ... on

GRIDX 3
-------
General Integration Accuracy     IntAcc      ... 4.338
Radial Grid Type                 RadialGrid  ... OptM3 with GC (2021)
Angular Grid (max. ang.)         AngularGrid ... 3 (Lebedev-194)
Angular grid pruning method      GridPruning ... 4 (adaptive)
Weight generation scheme         WeightScheme... mBecke (2022)
Basis function cutoff            BFCut       ... 1.0000e-11
Integration weight cutoff        WCut        ... 1.0000e-14
Partially contracted basis set               ... on
Rotationally invariant grid construction     ... off
Angular grids for H and He will be reduced by one unit

Total number of grid points                  ...   100057
Total number of batches                      ...      800
Average number of points per batch           ...      125
Average number of grid points per atom       ...     2943
UseSFitting                                  ... on
Initializing property integral containers    ... done (  0.0 sec)

SHARK setup successfully completed in   6.1 seconds

Maximum memory used throughout the entire STARTUP-calculation: 80.0 MB
-------------------------------------------------------------------------------
                                 ORCA GUESS
                   Start orbitals & Density for SCF / CASSCF
-------------------------------------------------------------------------------

------------
SCF SETTINGS
------------
Hamiltonian:
 Density Functional     Method          .... DFT(GTOs)
 Exchange Functional    Exchange        .... B88
   X-Alpha parameter    XAlpha          ....  0.666667
   Becke's b parameter  XBeta           ....  0.004200
 Correlation Functional Correlation     .... LYP
 LDA part of GGA corr.  LDAOpt          .... VWN-3
 Gradients option       PostSCFGGA      .... off
 Hybrid DFT is turned on
   Fraction HF Exchange ScalHFX         ....  0.200000
   Scaling of DF-GGA-X  ScalDFX         ....  0.720000
   Scaling of DF-GGA-C  ScalDFC         ....  0.810000
   Scaling of DF-LDA-C  ScalLDAC        ....  1.000000
   Perturbative correction              ....  0.000000
   NL short-range parameter             ....  4.800000
 RI-approximation to the Coulomb term is turned on
   Number of AuxJ basis functions       .... 1134
   RIJ-COSX (HFX calculated with COS-X)).... on


General Settings:
 Integral files         IntName         .... 5
 Hartree-Fock type      HFTyp           .... RHF
 Total Charge           Charge          ....    0
 Multiplicity           Mult            ....    1
 Number of Electrons    NEL             ....  140
 Basis Dimension        Dim             ....  402
 Nuclear Repulsion      ENuc            ....   1507.0012835841 Eh

Convergence Acceleration:
 AO-DIIS                CNVDIIS         .... on
   Start iteration      DIISMaxIt       ....    12
   Startup error        DIISStart       ....  0.200000
   # of expansion vecs  DIISMaxEq       ....     5
   Bias factor          DIISBfac        ....   1.050
   Max. coefficient     DIISMaxC        ....  10.000
 MO-DIIS                CNVKDIIS        .... off
 Trust-Rad. Augm. Hess. CNVTRAH         .... auto
   Auto Start mean grad. ratio tolernc. ....  1.125000
   Auto Start start iteration           ....    50
   Auto Start num. interpolation iter.  ....    10
   Max. Number of Micro iterations      ....    24
   Max. Number of Macro iterations      .... Maxiter - #DIIS iter
   Number of Davidson start vectors     ....     2
   Converg. threshold    (grad. norm)   ....   1.000e-05
   Grad. Scal. Fac. for Micro threshold ....   0.100
   Minimum threshold for Micro iter.    ....   1.000e-02
   NR start threshold (gradient norm)   ....   1.000e-04
   Initial trust radius                 ....   0.400
   Minimum AH scaling param. (alpha)    ....   1.000
   Maximum AH scaling param. (alpha)    .... 1000.000
   Quad. conv. algorithm                .... NR
   White noise on init. David. guess    .... on
   Maximum white noise                  ....   0.010
   Pseudo random numbers                .... off
   Inactive MOs                         .... canonical
   Orbital update algorithm             .... Taylor
   Preconditioner                       .... Diag
   Full preconditioner red. dimension   ....   250
 SOSCF                  CNVSOSCF        .... on
   Start iteration      SOSCFMaxIt      ....   150
   Startup grad/error   SOSCFStart      ....  0.003300
   Hessian update       SOSCFHessUp     .... L-BFGS
 Level Shifting         CNVShift        .... on
   Level shift para.    LevelShift      ....    0.2500
   Turn off err/grad.   ShiftErr        ....    0.0010
 Zerner damping         CNVZerner       .... off
 Static damping         CNVDamp         .... on
   Fraction old density DampFac         ....    0.7000
   Max. Damping (<1)    DampMax         ....    0.9800
   Min. Damping (>=0)   DampMin         ....    0.0000
   Turn off err/grad.   DampErr         ....    0.1000

SCF Procedure:
 Maximum # iterations   MaxIter         ....   125
 SCF integral mode      SCFMode         .... Direct
   Integral package                     .... SHARK and LIBINT hybrid scheme
 Reset frequency        DirectResetFreq ....    20
 Integral Threshold     Thresh          ....  2.500e-11 Eh
 Primitive CutOff       TCut            ....  2.500e-12 Eh

Convergence Tolerance:
 Convergence Check Mode ConvCheckMode   .... Total+1el-Energy
 Convergence forced     ConvForced      .... 0
 Energy Change          TolE            ....  1.000e-08 Eh
 1-El. energy change                    ....  1.000e-05 Eh
 Orbital Gradient       TolG            ....  1.000e-05
 Orbital Rotation angle TolX            ....  1.000e-05
 DIIS Error             TolErr          ....  5.000e-07

------------------------------
INITIAL GUESS: MODEL POTENTIAL
------------------------------
Loading Hartree-Fock densities                     ... done
Calculating cut-offs                               ... done
Initializing the effective Hamiltonian             ... done
Setting up the integral package (SHARK)            ... done
Starting the Coulomb interaction                   ... done (   1.0 sec)
Making the grid                                    ... done (   0.6 sec)
Mapping shells                                     ... done
Starting the XC term evaluation                    ... done (   0.6 sec)
  promolecular density results
     # of electrons  =    139.983042440
     EX              =   -116.097188065
     EC              =     -4.791357467
     EX+EC           =   -120.888545532
Transforming the Hamiltonian                       ... done (   0.0 sec)
Diagonalizing the Hamiltonian                      ... done (   0.0 sec)
Back transforming the eigenvectors                 ... done (   0.0 sec)
Now organizing SCF variables                       ... done
                      ------------------
                      INITIAL GUESS DONE (   2.3 sec)
                      ------------------
             **** ENERGY FILE WAS UPDATED (5.en.tmp) ****
Finished Guess after   2.8 sec
Maximum memory used throughout the entire GUESS-calculation: 47.7 MB

-------------------------------------------------------------------------------------------
                                      ORCA LEAN-SCF
                              memory conserving SCF solver
-------------------------------------------------------------------------------------------

--------------------
CPCM SOLVATION MODEL
--------------------
CPCM parameters:
  Epsilon                                         ...      80.1510
  Refrac                                          ...       1.3328
  Rsolv                                           ...       1.3000
  Surface type                                    ... GAUSSIAN VDW
  Discretization scheme                           ... Constant charge density
    Threshold for H atoms                         ...       5.0000 (charges/Ang^2)
    Threshold for non-H atoms                     ...       5.0000 (charges/Ang^2)
  Epsilon function type                           ...         CPCM
Solvent:                                          ... WATER
Radii:
  Scheme                                          ... Element-dependent radii
  Radius for C  used is    3.8550 Bohr (=   2.0400 Ang.)
  Radius for O  used is    3.4469 Bohr (=   1.8240 Ang.)
  Radius for N  used is    3.5149 Bohr (=   1.8600 Ang.)
  Radius for H  used is    2.4944 Bohr (=   1.3200 Ang.)
Calculating surface                               ...        done! (  0.0s)
Cavity surface points                             ...         2997
Cavity Volume                                     ...    2106.4770
Cavity Surface-area                               ...    1065.4910
Calculating surface distance matrix               ...        done! (  0.0s)
Performing Cholesky decomposition & store         ...        done! (  0.9s)
Overall time for CPCM initialization              ...                 0.9s

----------------------------------------D-I-I-S--------------------------------------------
Iteration    Energy (Eh)           Delta-E    RMSDP     MaxDP     DIISErr   Damp  Time(sec)
-------------------------------------------------------------------------------------------
               ***  Starting incremental Fock matrix formation  ***
    1    -877.8327917314284150     0.00e+00  1.93e-03  7.60e-02  3.54e-01  0.700  27.3
    2    -878.0550265254603346    -2.22e-01  1.44e-03  4.67e-02  1.37e-01  0.700  14.8
                               ***Turning on AO-DIIS***
    3    -878.1467931602430781    -9.18e-02  6.42e-04  1.86e-02  4.03e-02  0.700  14.7
    4    -878.2019899559493297    -5.52e-02  1.01e-03  2.56e-02  2.12e-02  0.000  14.0
    5    -878.3216191121234715    -1.20e-01  2.37e-04  6.72e-03  5.20e-03  0.000  14.5
                              *** Initializing SOSCF ***
---------------------------------------S-O-S-C-F--------------------------------------
Iteration    Energy (Eh)           Delta-E    RMSDP     MaxDP     MaxGrad    Time(sec)
--------------------------------------------------------------------------------------
    6    -878.3222014868040333    -5.82e-04  6.55e-05  1.62e-03  1.97e-03    13.4
               *** Restarting incremental Fock matrix formation ***
    7    -878.3222224521807675    -2.10e-05  3.93e-05  1.57e-03  3.33e-04    27.8
    8    -878.3222111694387877     1.13e-05  1.99e-05  9.98e-04  6.16e-04    18.4
    9    -878.3222301972589321    -1.90e-05  2.95e-06  1.00e-04  2.12e-05    16.5
   10    -878.3222301327111836     6.45e-08  1.65e-06  6.77e-05  3.60e-05    14.2
   11    -878.3222302450406005    -1.12e-07  5.18e-07  1.92e-05  4.27e-06    13.0
   12    -878.3222302379142548     7.13e-09  2.71e-07  1.24e-05  5.86e-06    11.2
                 **** Energy Check signals convergence ****

               *****************************************************
               *                     SUCCESS                       *
               *           SCF CONVERGED AFTER  12 CYCLES          *
               *****************************************************

Recomputing exchange energy using gridx3       ... done (   40.530 sec)
Old exchange energy                            :    -23.582840823 Eh
New exchange energy                            :    -23.582853982 Eh
Exchange energy change after final integration :     -0.000013158 Eh
Total energy after final integration           :   -878.322243396 Eh
             **** ENERGY FILE WAS UPDATED (5.en.tmp) ****

----------------
TOTAL SCF ENERGY
----------------

Total Energy       :       -878.32224339639595 Eh          -23900.36331 eV

Components:
Nuclear Repulsion  :       1507.00128358414872 Eh           41007.58971 eV
Electronic Energy  :      -2385.30215116802719 Eh          -64907.37136 eV
One Electron Energy:      -4187.09198308085888 Eh         -113936.56528 eV
Two Electron Energy:       1801.78983191283146 Eh           49029.19392 eV
CPCM Dielectric    :         -0.02136265403562 Eh              -0.58131 eV

Virial components:
Potential Energy   :      -1753.87813513387869 Eh          -47725.45037 eV
Kinetic Energy     :        875.55589173748274 Eh           23825.08706 eV
Virial Ratio       :          2.00315953748358

DFT components:
N(Alpha)           :       70.000088175464 electrons
N(Beta)            :       70.000088175464 electrons
N(Total)           :      140.000176350928 electrons
E(X)               :      -93.740939037204 Eh       
E(C)               :       -6.163563348762 Eh       
E(XC)              :      -99.904502385965 Eh       

CPCM Solvation Model Properties:
Surface-charge          :         -0.02777550344946
Corrected charge        :          0.00000000000000
Outlying charge corr.   :          0.00004337793427 Eh               0.00118 eV
Free-energy (cav+disp)  :  This term is not implemented in the current solvation scheme

---------------
SCF CONVERGENCE
---------------

  Last Energy change         ...   -7.1263e-09  Tolerance :   1.0000e-08
  Last MAX-Density change    ...    1.2367e-05  Tolerance :   1.0000e-07
  Last RMS-Density change    ...    2.7074e-07  Tolerance :   5.0000e-09
  Last DIIS Error            ...    1.9664e-03  Tolerance :   5.0000e-07
  Last Orbital Gradient      ...    5.8561e-06  Tolerance :   1.0000e-05
  Last Orbital Rotation      ...    9.5902e-06  Tolerance :   1.0000e-05


----------------
ORBITAL ENERGIES
----------------

  NO   OCC          E(Eh)            E(eV) 
   0   2.0000     -19.166701      -521.5525 
   1   2.0000     -19.084608      -519.3186 
   2   2.0000     -14.343316      -390.3015 
   3   2.0000     -14.306419      -389.2975 
   4   2.0000     -10.316476      -280.7256 
   5   2.0000     -10.245155      -278.7848 
   6   2.0000     -10.220167      -278.1049 
   7   2.0000     -10.207217      -277.7525 
   8   2.0000     -10.195007      -277.4202 
   9   2.0000     -10.193374      -277.3758 
  10   2.0000     -10.192576      -277.3541 
  11   2.0000     -10.192252      -277.3453 
  12   2.0000     -10.190657      -277.3019 
  13   2.0000     -10.190150      -277.2881 
  14   2.0000     -10.180569      -277.0274 
  15   2.0000     -10.180457      -277.0243 
  16   2.0000     -10.179933      -277.0101 
  17   2.0000     -10.179825      -277.0071 
  18   2.0000     -10.178649      -276.9751 
  19   2.0000     -10.176501      -276.9167 
  20   2.0000      -1.121608       -30.5205 
  21   2.0000      -1.021036       -27.7838 
  22   2.0000      -0.960291       -26.1308 
  23   2.0000      -0.950459       -25.8633 
  24   2.0000      -0.885263       -24.0892 
  25   2.0000      -0.841767       -22.9056 
  26   2.0000      -0.809761       -22.0347 
  27   2.0000      -0.787098       -21.4180 
  28   2.0000      -0.754179       -20.5222 
  29   2.0000      -0.745728       -20.2923 
  30   2.0000      -0.723369       -19.6839 
  31   2.0000      -0.708917       -19.2906 
  32   2.0000      -0.656488       -17.8639 
  33   2.0000      -0.650718       -17.7069 
  34   2.0000      -0.639939       -17.4136 
  35   2.0000      -0.616397       -16.7730 
  36   2.0000      -0.579776       -15.7765 
  37   2.0000      -0.547084       -14.8869 
  38   2.0000      -0.537423       -14.6240 
  39   2.0000      -0.530614       -14.4387 
  40   2.0000      -0.520660       -14.1679 
  41   2.0000      -0.496875       -13.5206 
  42   2.0000      -0.492884       -13.4121 
  43   2.0000      -0.485294       -13.2055 
  44   2.0000      -0.479887       -13.0584 
  45   2.0000      -0.467369       -12.7178 
  46   2.0000      -0.446700       -12.1553 
  47   2.0000      -0.446064       -12.1380 
  48   2.0000      -0.438644       -11.9361 
  49   2.0000      -0.430496       -11.7144 
  50   2.0000      -0.421986       -11.4828 
  51   2.0000      -0.413200       -11.2437 
  52   2.0000      -0.409082       -11.1317 
  53   2.0000      -0.407861       -11.0985 
  54   2.0000      -0.403727       -10.9860 
  55   2.0000      -0.402784       -10.9603 
  56   2.0000      -0.386268       -10.5109 
  57   2.0000      -0.385654       -10.4942 
  58   2.0000      -0.373415       -10.1611 
  59   2.0000      -0.363579        -9.8935 
  60   2.0000      -0.356213        -9.6930 
  61   2.0000      -0.338326        -9.2063 
  62   2.0000      -0.321832        -8.7575 
  63   2.0000      -0.308988        -8.4080 
  64   2.0000      -0.282960        -7.6997 
  65   2.0000      -0.280928        -7.6444 
  66   2.0000      -0.254188        -6.9168 
  67   2.0000      -0.249498        -6.7892 
  68   2.0000      -0.244830        -6.6622 
  69   2.0000      -0.227117        -6.1802 
  70   0.0000      -0.058819        -1.6005 
  71   0.0000      -0.051198        -1.3932 
  72   0.0000      -0.011545        -0.3142 
  73   0.0000       0.015756         0.4288 
  74   0.0000       0.046957         1.2778 
  75   0.0000       0.047722         1.2986 
  76   0.0000       0.058769         1.5992 
  77   0.0000       0.063604         1.7307 
  78   0.0000       0.064046         1.7428 
  79   0.0000       0.079036         2.1507 
  80   0.0000       0.088227         2.4008 
*Only the first 10 virtual orbitals were printed.

                    ********************************
                    * MULLIKEN POPULATION ANALYSIS *
                    ********************************

-----------------------
MULLIKEN ATOMIC CHARGES
-----------------------
   0 C :   -0.206755
   1 C :   -0.221907
   2 C :   -0.225767
   3 C :    0.196416
   4 C :    0.020291
   5 O :   -0.344544
   6 C :    0.007421
   7 C :   -0.227942
   8 C :   -0.232737
   9 C :    0.100824
  10 C :   -0.007874
  11 N :   -0.337584
  12 C :   -0.050668
  13 C :   -0.291824
  14 C :   -0.105150
  15 C :    0.533028
  16 O :   -0.469306
  17 N :   -0.325726
  18 C :   -0.527705
  19 C :   -0.525343
  20 H :    0.233084
  21 H :    0.236483
  22 H :    0.233632
  23 H :    0.228069
  24 H :    0.230569
  25 H :    0.254904
  26 H :    0.226889
  27 H :    0.229910
  28 H :    0.227126
  29 H :    0.229097
  30 H :    0.227579
  31 H :    0.220509
  32 H :    0.229090
  33 H :    0.235910
Sum of atomic charges:    0.0000000

--------------------------------
MULLIKEN REDUCED ORBITAL CHARGES
--------------------------------
  0 C s       :     3.160733  s :     3.160733
      pz      :     0.993165  p :     2.987239
      px      :     1.024331
      py      :     0.969743
      dz2     :     0.011952  d :     0.058783
      dxz     :     0.011993
      dyz     :     0.007888
      dx2y2   :     0.016066
      dxy     :     0.010883

  1 C s       :     3.198340  s :     3.198340
      pz      :     0.978883  p :     2.960427
      px      :     0.995786
      py      :     0.985758
      dz2     :     0.009317  d :     0.063140
      dxz     :     0.017430
      dyz     :     0.007715
      dx2y2   :     0.011239
      dxy     :     0.017439

  2 C s       :     3.188886  s :     3.188886
      pz      :     1.016019  p :     2.975475
      px      :     0.952842
      py      :     1.006615
      dz2     :     0.007279  d :     0.061406
      dxz     :     0.015605
      dyz     :     0.009746
      dx2y2   :     0.013341
      dxy     :     0.015436

  3 C s       :     3.121162  s :     3.121162
      pz      :     0.766335  p :     2.568059
      px      :     0.910189
      py      :     0.891536
      dz2     :     0.020000  d :     0.114363
      dxz     :     0.026324
      dyz     :     0.019472
      dx2y2   :     0.024696
      dxy     :     0.023871

  4 C s       :     3.045744  s :     3.045744
      pz      :     1.044383  p :     2.865597
      px      :     0.874338
      py      :     0.946876
      dz2     :     0.011822  d :     0.068368
      dxz     :     0.016486
      dyz     :     0.008225
      dx2y2   :     0.015730
      dxy     :     0.016106

  5 O s       :     3.795517  s :     3.795517
      pz      :     1.571591  p :     4.533728
      px      :     1.585512
      py      :     1.376624
      dz2     :     0.003299  d :     0.015299
      dxz     :     0.002575
      dyz     :     0.004302
      dx2y2   :     0.002252
      dxy     :     0.002871

  6 C s       :     3.090106  s :     3.090106
      pz      :     0.948751  p :     2.826313
      px      :     0.937994
      py      :     0.939568
      dz2     :     0.013514  d :     0.076160
      dxz     :     0.018184
      dyz     :     0.009546
      dx2y2   :     0.017485
      dxy     :     0.017431

  7 C s       :     3.193610  s :     3.193610
      pz      :     1.015282  p :     2.972279
      px      :     0.944643
      py      :     1.012355
      dz2     :     0.008027  d :     0.062053
      dxz     :     0.013802
      dyz     :     0.010841
      dx2y2   :     0.015564
      dxy     :     0.013819

  8 C s       :     3.201906  s :     3.201906
      pz      :     0.965782  p :     2.968842
      px      :     1.039284
      py      :     0.963776
      dz2     :     0.012859  d :     0.061988
      dxz     :     0.011237
      dyz     :     0.009203
      dx2y2   :     0.018903
      dxy     :     0.009787

  9 C s       :     3.066041  s :     3.066041
      pz      :     0.883866  p :     2.733277
      px      :     0.957889
      py      :     0.891522
      dz2     :     0.017572  d :     0.099857
      dxz     :     0.025622
      dyz     :     0.013918
      dx2y2   :     0.019846
      dxy     :     0.022899

 10 C s       :     3.070484  s :     3.070484
      pz      :     0.990704  p :     2.863384
      px      :     0.885887
      py      :     0.986793
      dz2     :     0.013905  d :     0.074006
      dxz     :     0.016635
      dyz     :     0.010035
      dx2y2   :     0.017437
      dxy     :     0.015994

 11 N s       :     3.613815  s :     3.613815
      pz      :     1.110932  p :     3.686614
      px      :     1.491015
      py      :     1.084668
      dz2     :     0.006697  d :     0.037154
      dxz     :     0.008817
      dyz     :     0.005820
      dx2y2   :     0.006714
      dxy     :     0.009105

 12 C s       :     3.135154  s :     3.135154
      pz      :     0.969629  p :     2.825318
      px      :     0.905685
      py      :     0.950004
      dz2     :     0.013162  d :     0.090196
      dxz     :     0.019502
      dyz     :     0.014221
      dx2y2   :     0.023543
      dxy     :     0.019769

 13 C s       :     3.233274  s :     3.233274
      pz      :     0.995916  p :     2.999043
      px      :     0.995131
      py      :     1.007996
      dz2     :     0.008762  d :     0.059508
      dxz     :     0.015778
      dyz     :     0.008141
      dx2y2   :     0.011361
      dxy     :     0.015466

 14 C s       :     3.157654  s :     3.157654
      pz      :     0.948847  p :     2.885171
      px      :     0.995043
      py      :     0.941281
      dz2     :     0.012940  d :     0.062325
      dxz     :     0.012475
      dyz     :     0.008629
      dx2y2   :     0.017763
      dxy     :     0.010518

 15 C s       :     2.903336  s :     2.903336
      pz      :     0.756672  p :     2.332743
      px      :     0.800940
      py      :     0.775131
      dz2     :     0.053629  d :     0.230893
      dxz     :     0.052478
      dyz     :     0.068027
      dx2y2   :     0.029458
      dxy     :     0.027301

 16 O s       :     3.825094  s :     3.825094
      pz      :     1.375582  p :     4.628238
      px      :     1.573130
      py      :     1.679526
      dz2     :     0.006705  d :     0.015974
      dxz     :     0.004691
      dyz     :     0.003625
      dx2y2   :     0.000537
      dxy     :     0.000415

 17 N s       :     3.463471  s :     3.463471
      pz      :     1.113098  p :     3.826641
      px      :     1.424391
      py      :     1.289152
      dz2     :     0.008261  d :     0.035615
      dxz     :     0.007645
      dyz     :     0.010236
      dx2y2   :     0.004786
      dxy     :     0.004687

 18 C s       :     3.319712  s :     3.319712
      pz      :     0.840017  p :     3.137163
      px      :     1.141845
      py      :     1.155302
      dz2     :     0.017256  d :     0.070830
      dxz     :     0.016765
      dyz     :     0.016541
      dx2y2   :     0.008137
      dxy     :     0.012132

 19 C s       :     3.321306  s :     3.321306
      pz      :     1.179038  p :     3.132930
      px      :     1.014216
      py      :     0.939675
      dz2     :     0.014900  d :     0.071107
      dxz     :     0.013200
      dyz     :     0.005480
      dx2y2   :     0.018582
      dxy     :     0.018944

 20 H s       :     0.766916  s :     0.766916

 21 H s       :     0.763517  s :     0.763517

 22 H s       :     0.766368  s :     0.766368

 23 H s       :     0.771931  s :     0.771931

 24 H s       :     0.769431  s :     0.769431

 25 H s       :     0.745096  s :     0.745096

 26 H s       :     0.773111  s :     0.773111

 27 H s       :     0.770090  s :     0.770090

 28 H s       :     0.772874  s :     0.772874

 29 H s       :     0.770903  s :     0.770903

 30 H s       :     0.772421  s :     0.772421

 31 H s       :     0.779491  s :     0.779491

 32 H s       :     0.770910  s :     0.770910

 33 H s       :     0.764090  s :     0.764090



                     *******************************
                     * LOEWDIN POPULATION ANALYSIS *
                     *******************************

----------------------
LOEWDIN ATOMIC CHARGES
----------------------
   0 C :   -0.112754
   1 C :   -0.104372
   2 C :   -0.102327
   3 C :   -0.006826
   4 C :   -0.037828
   5 O :    0.078317
   6 C :   -0.032760
   7 C :   -0.092461
   8 C :   -0.098226
   9 C :   -0.037273
  10 C :   -0.050238
  11 N :   -0.003549
  12 C :   -0.105283
  13 C :   -0.128852
  14 C :   -0.061556
  15 C :   -0.124695
  16 O :   -0.202496
  17 N :    0.043838
  18 C :   -0.247155
  19 C :   -0.242058
  20 H :    0.117443
  21 H :    0.114321
  22 H :    0.114029
  23 H :    0.109545
  24 H :    0.115699
  25 H :    0.116791
  26 H :    0.122952
  27 H :    0.122721
  28 H :    0.123835
  29 H :    0.124992
  30 H :    0.124333
  31 H :    0.107703
  32 H :    0.126387
  33 H :    0.127802

-------------------------------
LOEWDIN REDUCED ORBITAL CHARGES
-------------------------------
  0 C s       :     2.831224  s :     2.831224
      pz      :     1.043677  p :     3.150521
      px      :     1.069809
      py      :     1.037035
      dz2     :     0.024711  d :     0.131009
      dxz     :     0.027518
      dyz     :     0.021539
      dx2y2   :     0.031294
      dxy     :     0.025946

  1 C s       :     2.827050  s :     2.827050
      pz      :     1.025149  p :     3.140063
      px      :     1.097660
      py      :     1.017254
      dz2     :     0.020559  d :     0.137259
      dxz     :     0.036292
      dyz     :     0.016966
      dx2y2   :     0.028177
      dxy     :     0.035266

  2 C s       :     2.826127  s :     2.826127
      pz      :     1.025192  p :     3.142483
      px      :     1.095475
      py      :     1.021817
      dz2     :     0.015539  d :     0.133717
      dxz     :     0.035096
      dyz     :     0.016092
      dx2y2   :     0.032402
      dxy     :     0.034588

  3 C s       :     2.788064  s :     2.788064
      pz      :     0.936992  p :     2.967607
      px      :     1.082112
      py      :     0.948504
      dz2     :     0.042397  d :     0.251154
      dxz     :     0.058387
      dyz     :     0.046432
      dx2y2   :     0.053893
      dxy     :     0.050045

  4 C s       :     2.784201  s :     2.784201
      pz      :     1.023516  p :     3.092561
      px      :     1.049474
      py      :     1.019570
      dz2     :     0.025975  d :     0.161066
      dxz     :     0.038521
      dyz     :     0.020591
      dx2y2   :     0.038581
      dxy     :     0.037399

  5 O s       :     3.362382  s :     3.362382
      pz      :     1.570350  p :     4.533873
      px      :     1.573513
      py      :     1.390010
      dz2     :     0.005059  d :     0.025428
      dxz     :     0.003727
      dyz     :     0.007025
      dx2y2   :     0.003691
      dxy     :     0.005926

  6 C s       :     2.778566  s :     2.778566
      pz      :     1.009143  p :     3.080512
      px      :     1.066314
      py      :     1.005056
      dz2     :     0.029227  d :     0.173682
      dxz     :     0.041476
      dyz     :     0.023327
      dx2y2   :     0.040287
      dxy     :     0.039366

  7 C s       :     2.827538  s :     2.827538
      pz      :     1.025207  p :     3.130387
      px      :     1.078286
      py      :     1.026894
      dz2     :     0.016521  d :     0.134536
      dxz     :     0.031746
      dyz     :     0.018408
      dx2y2   :     0.035784
      dxy     :     0.032078

  8 C s       :     2.827164  s :     2.827164
      pz      :     1.026755  p :     3.136057
      px      :     1.081439
      py      :     1.027863
      dz2     :     0.026372  d :     0.135005
      dxz     :     0.025415
      dyz     :     0.022861
      dx2y2   :     0.036703
      dxy     :     0.023653

  9 C s       :     2.782659  s :     2.782659
      pz      :     0.985966  p :     3.027538
      px      :     1.061628
      py      :     0.979944
      dz2     :     0.036401  d :     0.227076
      dxz     :     0.059658
      dyz     :     0.033803
      dx2y2   :     0.044537
      dxy     :     0.052677

 10 C s       :     2.783235  s :     2.783235
      pz      :     1.011808  p :     3.095386
      px      :     1.075685
      py      :     1.007894
      dz2     :     0.029549  d :     0.171617
      dxz     :     0.039543
      dyz     :     0.023707
      dx2y2   :     0.041025
      dxy     :     0.037792

 11 N s       :     3.134242  s :     3.134242
      pz      :     1.149357  p :     3.800393
      px      :     1.521355
      py      :     1.129682
      dz2     :     0.012497  d :     0.068913
      dxz     :     0.015074
      dyz     :     0.014051
      dx2y2   :     0.011655
      dxy     :     0.015637

 12 C s       :     2.837199  s :     2.837199
      pz      :     0.996936  p :     3.069637
      px      :     1.085808
      py      :     0.986893
      dz2     :     0.027424  d :     0.198447
      dxz     :     0.044153
      dyz     :     0.025290
      dx2y2   :     0.054816
      dxy     :     0.046764

 13 C s       :     2.837473  s :     2.837473
[...]
 49:    994.21   0.005381   27.19  0.001689  (-0.023057 -0.002801  0.033903)
 50:   1000.85   0.000198    1.00  0.000062  ( 0.000740 -0.005411  0.005650)
 51:   1029.01   0.008916   45.06  0.002704  ( 0.043271 -0.028765 -0.001996)
 52:   1046.48   0.008365   42.27  0.002494  ( 0.024179 -0.043657 -0.001982)
 53:   1082.42   0.003782   19.11  0.001090  ( 0.008285 -0.031950  0.001031)
 54:   1084.40   0.001132    5.72  0.000326  ( 0.000557  0.009376 -0.015414)
 55:   1107.96   0.000611    3.09  0.000172  (-0.012759 -0.002658 -0.001469)
 56:   1133.37   0.000575    2.91  0.000158  ( 0.004411  0.003981 -0.011094)
 57:   1148.07   0.008260   41.74  0.002245  (-0.006237 -0.042133 -0.020763)
 58:   1160.12   0.183451  927.09  0.049347  (-0.101975  0.168021  0.103523)
 59:   1172.44   0.001664    8.41  0.000443  (-0.002768  0.015155  0.014336)
 60:   1181.47   0.021653  109.42  0.005719  (-0.040184  0.060726  0.020413)
 61:   1188.12   0.002163   10.93  0.000568  ( 0.011661 -0.020597 -0.002792)
 62:   1220.83   0.004077   20.60  0.001042  (-0.008366  0.026938  0.015701)
 63:   1225.81   0.008398   42.44  0.002138  (-0.022075  0.036315  0.018213)
 64:   1258.10   0.027821  140.60  0.006901  (-0.050543  0.060829  0.025418)
 65:   1272.16   0.004659   23.54  0.001143  (-0.013002  0.029547  0.010035)
 66:   1286.25   0.002953   14.93  0.000717  ( 0.003648  0.022668 -0.013762)
 67:   1324.31   0.003135   15.84  0.000739  ( 0.018784 -0.015426 -0.012164)
 68:   1342.59   0.006244   31.55  0.001451  (-0.021553  0.024909  0.019137)
 69:   1355.88   0.002035   10.28  0.000468  ( 0.015676 -0.011118 -0.009945)
 70:   1411.95   0.026145  132.13  0.005778  (-0.001047  0.063092  0.042389)
 71:   1420.16   0.042631  215.44  0.009368  (-0.057071  0.068776  0.037153)
 72:   1446.25   0.003643   18.41  0.000786  ( 0.006388  0.006459 -0.026525)
 73:   1452.69   0.002831   14.31  0.000608  (-0.004975 -0.020715 -0.012424)
 74:   1457.12   0.006068   30.67  0.001300  ( 0.001534  0.028851  0.021560)
 75:   1470.84   0.006665   33.68  0.001414  ( 0.018792 -0.030327  0.011886)
 76:   1477.76   0.003800   19.20  0.000802  ( 0.021178  0.010752 -0.015437)
 77:   1493.08   0.000550    2.78  0.000115  ( 0.000824 -0.001242 -0.010614)
 78:   1501.06   0.006615   33.43  0.001375  (-0.029052 -0.004193 -0.022662)
 79:   1504.60   0.003176   16.05  0.000659  (-0.003845 -0.022695  0.011356)
 80:   1531.49   0.001767    8.93  0.000360  ( 0.014546 -0.011231  0.004728)
 81:   1536.22   0.014082   71.16  0.002861  ( 0.014113 -0.050844 -0.008733)
 82:   1548.43   0.010128   51.18  0.002041  (-0.024956  0.032252  0.019448)
 83:   1601.08   0.007782   39.32  0.001517  ( 0.037433 -0.004686 -0.009669)
 84:   1633.14   0.010937   55.27  0.002090  (-0.008512 -0.033996 -0.029355)
 85:   1647.04   0.001206    6.10  0.000229  (-0.007638 -0.009043 -0.009405)
 86:   1661.62   0.004322   21.84  0.000812  ( 0.027525  0.007353 -0.000084)
 87:   1743.17   0.175676  887.79  0.031450  ( 0.040279  0.008932 -0.172475)
 88:   3023.29   0.008933   45.14  0.000922  (-0.008389 -0.021572  0.019656)
 89:   3028.19   0.025804  130.40  0.002659  ( 0.039251 -0.020509 -0.026419)
 90:   3078.82   0.014653   74.05  0.001485  (-0.028457 -0.019770 -0.016869)
 91:   3086.48   0.005905   29.84  0.000597  ( 0.014202  0.012303  0.015620)
 92:   3150.63   0.009622   48.62  0.000953  (-0.004240  0.021873  0.021368)
 93:   3169.79   0.000320    1.62  0.000032  ( 0.005189  0.001945  0.000915)
 94:   3173.72   0.001621    8.19  0.000159  (-0.002009 -0.004734  0.011532)
 95:   3176.35   0.001223    6.18  0.000120  (-0.009081  0.003414  0.005106)
 96:   3176.92   0.001598    8.07  0.000157  ( 0.011917 -0.001804 -0.003415)
 97:   3183.07   0.002633   13.31  0.000258  (-0.009603  0.012862  0.000706)
 98:   3186.55   0.005095   25.75  0.000499  ( 0.019144 -0.006556 -0.009460)
 99:   3189.51   0.009372   47.36  0.000917  ( 0.007959 -0.020749 -0.020568)
100:   3201.04   0.011023   55.71  0.001075  ( 0.023295  0.018748  0.013434)
101:   3201.31   0.000303    1.53  0.000029  ( 0.005174  0.001648 -0.000045)

* The epsilon (eps) is given for a Dirac delta lineshape.
** The dipole moment derivative (T) already includes vibrational overlap.

The first frequency considered to be a vibration is 6
The total number of vibrations considered is 96


--------------------------
THERMOCHEMISTRY AT 298.15K
--------------------------

Temperature         ...   298.15 K
Pressure            ...     1.00 atm
Total Mass          ...   266.30 AMU
Quasi RRHO          ...     True
Cut-Off Frequency   ...     1.00 cm^-1

Throughout the following assumptions are being made:
  (1) The electronic state is orbitally nondegenerate
  (2) There are no thermally accessible electronically excited states
  (3) Hindered rotations indicated by low frequency modes are not
      treated as such but are treated as vibrations and this may
      cause some error
  (4) All equations used are the standard statistical mechanics
      equations for an ideal gas
  (5) All vibrations are strictly harmonic

freq.      33.83  E(vib)   ...       0.55 
freq.      34.66  E(vib)   ...       0.54 
freq.      50.77  E(vib)   ...       0.52 
freq.      64.51  E(vib)   ...       0.51 
freq.      91.86  E(vib)   ...       0.47 
freq.      98.89  E(vib)   ...       0.46 
freq.     114.12  E(vib)   ...       0.44 
freq.     129.66  E(vib)   ...       0.43 
freq.     203.11  E(vib)   ...       0.35 
freq.     216.02  E(vib)   ...       0.34 
freq.     229.45  E(vib)   ...       0.32 
freq.     233.29  E(vib)   ...       0.32 
freq.     244.27  E(vib)   ...       0.31 
freq.     296.51  E(vib)   ...       0.27 
freq.     365.18  E(vib)   ...       0.22 
freq.     377.71  E(vib)   ...       0.21 
freq.     409.81  E(vib)   ...       0.19 
freq.     420.80  E(vib)   ...       0.18 
freq.     464.05  E(vib)   ...       0.16 
freq.     488.86  E(vib)   ...       0.15 
freq.     509.70  E(vib)   ...       0.14 
freq.     519.34  E(vib)   ...       0.13 
freq.     524.94  E(vib)   ...       0.13 
freq.     561.28  E(vib)   ...       0.11 
freq.     582.04  E(vib)   ...       0.11 
freq.     607.19  E(vib)   ...       0.10 
freq.     623.15  E(vib)   ...       0.09 
freq.     659.17  E(vib)   ...       0.08 
freq.     701.57  E(vib)   ...       0.07 
freq.     729.84  E(vib)   ...       0.06 
freq.     736.19  E(vib)   ...       0.06 
freq.     740.27  E(vib)   ...       0.06 
freq.     773.26  E(vib)   ...       0.05 
freq.     800.89  E(vib)   ...       0.05 
freq.     823.83  E(vib)   ...       0.05 
freq.     833.36  E(vib)   ...       0.04 
freq.     853.96  E(vib)   ...       0.04 
freq.     868.33  E(vib)   ...       0.04 
freq.     870.50  E(vib)   ...       0.04 
freq.     922.28  E(vib)   ...       0.03 
freq.     965.47  E(vib)   ...       0.03 
freq.     979.55  E(vib)   ...       0.03 
freq.     987.97  E(vib)   ...       0.02 
freq.     994.21  E(vib)   ...       0.02 
freq.    1000.85  E(vib)   ...       0.02 
freq.    1029.01  E(vib)   ...       0.02 
freq.    1046.48  E(vib)   ...       0.02 
freq.    1082.42  E(vib)   ...       0.02 
freq.    1084.40  E(vib)   ...       0.02 
freq.    1107.96  E(vib)   ...       0.02 
freq.    1133.37  E(vib)   ...       0.01 
freq.    1148.07  E(vib)   ...       0.01 
freq.    1160.12  E(vib)   ...       0.01 
freq.    1172.44  E(vib)   ...       0.01 
freq.    1181.47  E(vib)   ...       0.01 
freq.    1188.12  E(vib)   ...       0.01 
freq.    1220.83  E(vib)   ...       0.01 
freq.    1225.81  E(vib)   ...       0.01 
freq.    1258.10  E(vib)   ...       0.01 
freq.    1272.16  E(vib)   ...       0.01 
freq.    1286.25  E(vib)   ...       0.01 
freq.    1324.31  E(vib)   ...       0.01 
freq.    1342.59  E(vib)   ...       0.01 
freq.    1355.88  E(vib)   ...       0.01 
freq.    1411.95  E(vib)   ...       0.00 
freq.    1420.16  E(vib)   ...       0.00 
freq.    1446.25  E(vib)   ...       0.00 
freq.    1452.69  E(vib)   ...       0.00 
freq.    1457.12  E(vib)   ...       0.00 
freq.    1470.84  E(vib)   ...       0.00 
freq.    1477.76  E(vib)   ...       0.00 
freq.    1493.08  E(vib)   ...       0.00 
freq.    1501.06  E(vib)   ...       0.00 
freq.    1504.60  E(vib)   ...       0.00 
freq.    1531.49  E(vib)   ...       0.00 
freq.    1536.22  E(vib)   ...       0.00 
freq.    1548.43  E(vib)   ...       0.00 
freq.    1601.08  E(vib)   ...       0.00 
freq.    1633.14  E(vib)   ...       0.00 
freq.    1647.04  E(vib)   ...       0.00 
freq.    1661.62  E(vib)   ...       0.00 
freq.    1743.17  E(vib)   ...       0.00 
freq.    3023.29  E(vib)   ...       0.00 
freq.    3028.19  E(vib)   ...       0.00 
freq.    3078.82  E(vib)   ...       0.00 
freq.    3086.48  E(vib)   ...       0.00 
freq.    3150.63  E(vib)   ...       0.00 
freq.    3169.79  E(vib)   ...       0.00 
freq.    3173.72  E(vib)   ...       0.00 
freq.    3176.35  E(vib)   ...       0.00 
freq.    3176.92  E(vib)   ...       0.00 
freq.    3183.07  E(vib)   ...       0.00 
freq.    3186.55  E(vib)   ...       0.00 
freq.    3189.51  E(vib)   ...       0.00 
freq.    3201.04  E(vib)   ...       0.00 
freq.    3201.31  E(vib)   ...       0.00 

------------
INNER ENERGY
------------

The inner energy is: U= E(el) + E(ZPE) + E(vib) + E(rot) + E(trans)
    E(el)   - is the total energy from the electronic structure calculation
              = E(kin-el) + E(nuc-el) + E(el-el) + E(nuc-nuc)
    E(ZPE)  - the the zero temperature vibrational energy from the frequency calculation
    E(vib)  - the the finite temperature correction to E(ZPE) due to population
              of excited vibrational states
    E(rot)  - is the rotational thermal energy
    E(trans)- is the translational thermal energy

Summary of contributions to the inner energy U:
Electronic energy                ...   -878.32945904 Eh
Zero point energy                ...      0.26864072 Eh     168.57 kcal/mol
Thermal vibrational correction   ...      0.01404065 Eh       8.81 kcal/mol
Thermal rotational correction    ...      0.00141627 Eh       0.89 kcal/mol
Thermal translational correction ...      0.00141627 Eh       0.89 kcal/mol
-----------------------------------------------------------------------
Total thermal energy                   -878.04394513 Eh


Summary of corrections to the electronic energy:
(perhaps to be used in another calculation)
Total thermal correction                  0.01687319 Eh      10.59 kcal/mol
Non-thermal (ZPE) correction              0.26864072 Eh     168.57 kcal/mol
-----------------------------------------------------------------------
Total correction                          0.28551392 Eh     179.16 kcal/mol


--------
ENTHALPY
--------

The enthalpy is H = U + kB*T
                kB is Boltzmann's constant
Total thermal energy              ...   -878.04394513 Eh 
Thermal Enthalpy correction       ...      0.00094421 Eh       0.59 kcal/mol
-----------------------------------------------------------------------
Total Enthalpy                    ...   -878.04300092 Eh


Note: Only C1 symmetry has been detected, increase convergence thresholds 
      if your molecule has a higher symmetry. Symmetry factor of 1.0 is   
      used for the rotational entropy correction. 
 

Note: Rotational entropy computed according to Herzberg 
Infrared and Raman Spectra, Chapter V,1, Van Nostrand Reinhold, 1945 
Point Group:  C1, Symmetry Number:   1  
Rotational constants in cm-1:     0.016153     0.010969     0.007123 

Vibrational entropy computed according to the QRRHO of S. Grimme
Chem.Eur.J. 2012 18 9955 using a reference frequency of 100.0 cm-1


-------
ENTROPY
-------

The entropy contributions are T*S = T*(S(el)+S(vib)+S(rot)+S(trans))
     S(el)   - electronic entropy
     S(vib)  - vibrational entropy
     S(rot)  - rotational entropy
     S(trans)- translational entropy
The entropies will be listed as multiplied by the temperature to get
units of energy

Electronic entropy                ...      0.00000000 Eh      0.00 kcal/mol
Vibrational entropy               ...      0.02463379 Eh     15.46 kcal/mol
Rotational entropy                ...      0.01592308 Eh      9.99 kcal/mol
Translational entropy             ...      0.02025841 Eh     12.71 kcal/mol
-----------------------------------------------------------------------
Final entropy term                ...      0.06081529 Eh     38.16 kcal/mol

In case the symmetry of your molecule has not been determined correctly
or in case you have a reason to use a different symmetry number we print 
out the resulting rotational entropy values for sn=1,12:

 non-linear molecules -----------------------------------
|  sn= 1 | S(rot)=       0.01592308 Eh      9.99 kcal/mol|
|  sn= 2 | S(rot)=       0.01526862 Eh      9.58 kcal/mol|
|  sn= 3 | S(rot)=       0.01488579 Eh      9.34 kcal/mol|
|  sn= 4 | S(rot)=       0.01461417 Eh      9.17 kcal/mol|
|  sn= 5 | S(rot)=       0.01440348 Eh      9.04 kcal/mol|
|  sn= 6 | S(rot)=       0.01423134 Eh      8.93 kcal/mol|
|  sn= 7 | S(rot)=       0.01408579 Eh      8.84 kcal/mol|
|  sn= 8 | S(rot)=       0.01395971 Eh      8.76 kcal/mol|
|  sn= 9 | S(rot)=       0.01384850 Eh      8.69 kcal/mol|
|  sn=10 | S(rot)=       0.01374902 Eh      8.63 kcal/mol|
|  sn=11 | S(rot)=       0.01365903 Eh      8.57 kcal/mol|
|  sn=12 | S(rot)=       0.01357688 Eh      8.52 kcal/mol|
 linear molecules ---------------------------------------
|  Dinfh | S(rot)=       0.00999425 Eh      6.27 kcal/mol|
|  Cinfv | S(rot)=       0.01064870 Eh      6.68 kcal/mol|
 --------------------------------------------------------


-------------------
GIBBS FREE ENERGY
-------------------

The Gibbs free energy is G = H - T*S

Total enthalpy                    ...   -878.04300092 Eh 
Total entropy correction          ...     -0.06081529 Eh    -38.16 kcal/mol
-----------------------------------------------------------------------
Final Gibbs free energy         ...   -878.10381620 Eh

For completeness - the Gibbs free energy minus the electronic energy
G-E(el)                           ...      0.22564284 Eh    141.59 kcal/mol


Maximum memory used throughout the entire PROP-calculation: 231.9 MB

--------------------------------
SUGGESTED CITATIONS FOR THIS RUN
--------------------------------

Below you find a list of papers that are relevant to this ORCA run
We neither can nor want to force you to cite these papers, but we appreciate if you do
You receive ORCA, which is the product of decades of hard work by many enthusiastic individuals, for free
The only thing we kindly ask in return is that you cite our papers,
We deeply appreciate it, if you show your appreciation for ORCA by not just citing the generic ORCA reference.

Please note that relegating all ORCA citations to the supporting information does *not* help us.
SI sections are not indexed - citations you put there will not count into any citation statistics
But we need these citations in order to attract the funding resources that allow us to do what we are doing

Therefore, if you are a happy ORCA user, please consider citing a few of the papers listed below in the main body of your paper

In addition to the list printed below, the program has created the file 5.bibtex that contains the list in bibtex format
You can import this file easily into all common literature databanks and citation aid programs


List of essential papers. We consider these as the minimum necessary citations

  1. Neese,F.
     Software update: the ORCA program system, version 5.0
     WIRES Comput. Molec. Sci., 2022 12(1)e1606
     doi.org/10.1002/wcms.1606

List of papers to cite with high priority. The work reported in these papers was absolutely
necessary for this run to complete.
Our perspective: the developers of density functionals and basis sets usually get cited in chemistry papers
Good! But without the algorithms to do something with them, the functionals or basis sets would not do anything.
Hence, in our opinion, the algorithm design and method developments papers are equally worthy of getting cited

  1. Neese,F.
     An improvement of the resolution of the identity approximation for the formation of the Coulomb matrix
     J. Comp. Chem., 2003 24(14)1740-1747
     doi.org/10.1002/jcc.10318
  2. Neese,F.; Wennmohs,F.; Hansen,A.; Becker,U.
     Efficient, approximate and parallel Hartree-Fock and hybrid DFT calculations. A 'chain-of-spheres' algorithm for the Hartree-Fock exchange
     Chem. Phys., 2009 356(1-3)98-109
     doi.org/10.1016/j.chemphys.2008.10.036
  3. Bykov,D.; Petrenko,T.; Izsak,R.; Kossmann,S.; Becker,U.; Valeev,E.; Neese,F.
     Efficient implementation of the analytic second derivatives of Hartree-Fock and hybrid DFT energies: a detailed analysis of different approximations
     Molec. Phys., 2015 113 1961-1977
     doi.org/10.1080/00268976.2015.1025114
  4. Garcia-Rates,M.; Neese,F.
     Efficient implementation of the analytical second derivatives of hartree-fock and hybrid DFT energies within the framework of the conductor-like polarizable continuum model
     J. Comput. Chem., 2019 40 1816-1828
     doi.org/10.1002/jcc.25833
  5. Garcia-Rates,M.; Neese,F.
     Effect of the Solute Cavity on the Solvation Energy and its Derivatives within the Framework of the Gaussian Charge Scheme
     J. Comput. Chem., 2020 41 922-939
     doi.org/10.1002/jcc.26139
  6. Helmich-Paris,B.; de Souza,B.; Neese,F.; Izsák,R.
     An improved chain of spheres for exchange algorithm
     J. Chem. Phys., 2021 155 104109
     doi.org/doi: 10.1063/5.0058766.
  7. Neese,F.
     The SHARK Integral Generation and Digestion System
     J. Comp. Chem., 2022  1-16
     doi.org/10.1002/jcc.26942

List of suggested additional citations. These are papers that are important in the 'surrounding' of 
of this run, or papers that preceded the highly important papers. If you like your results we are grateful for a citation.

  1. Izsak,R.; Neese,F.
     An overlap fitted chain of spheres exchange method
     J. Chem. Phys., 2011 135 144105
     doi.org/10.1063/1.3646921
  2. Izsak,R.; Hansen,A.; Neese,F.
     The resolution of identity and chain of spheres approximations for the LPNO-CCSD singles Fock term
     Molec. Phys., 2012 110 2413-2417
     doi.org/10.1080/00268976.2012.687466
  3. Neese,F.
     The ORCA program system
     WIRES Comput. Molec. Sci., 2012 2(1)73-78
     doi.org/10.1002/wcms.81
  4. Izsak,R.; Neese,F.; Klopper,W.
     Robust fitting techniques in the chain of spheres approximation to the Fock exchange: The role of the complementary space
     J. Chem. Phys., 2013 139 
     doi.org/10.1063/1.4819264
  5. Neese,F.
     Software update: the ORCA program system, version 4.0
     WIRES Comput. Molec. Sci., 2018 8(1)1-6
     doi.org/10.1002/wcms.1327
  6. Neese,F.; Wennmohs,F.; Becker,U.; Riplinger,C.
     The ORCA quantum chemistry program package
     J. Chem. Phys., 2020 152 Art. No. L224108
     doi.org/10.1063/5.0004608

List of optional additional citations

  1. Neese,F.
     Approximate second-order SCF convergence for spin unrestricted wavefunctions
     Chem. Phys. Lett., 2000 325(1-3)93-98
     doi.org/10.1016/s0009-2614(00)00662-x

Timings for individual modules:

Sum of individual times          ...     8980.354 sec (= 149.673 min)
Startup calculation              ...      107.300 sec (=   1.788 min)   1.2 %
SCF iterations                   ...     3165.943 sec (=  52.766 min)  35.3 %
Property integrals               ...     1072.202 sec (=  17.870 min)  11.9 %
SCF Response                     ...     1423.873 sec (=  23.731 min)  15.9 %
Property calculations            ...     1363.433 sec (=  22.724 min)  15.2 %
SCF Gradient evaluation          ...     1846.688 sec (=  30.778 min)  20.6 %
Geometry relaxation              ...        0.913 sec (=   0.015 min)   0.0 %
                             ****ORCA TERMINATED NORMALLY****
TOTAL RUN TIME: 0 days 2 hours 29 minutes 48 seconds 615 msec
