
                                 *****************
                                 * O   R   C   A *
                                 *****************

                                            #,                                       
                                            ###                                      
                                            ####                                     
                                            #####                                    
                                            ######                                   
                                           ########,                                 
                                     ,,################,,,,,                         
                               ,,#################################,,                 
                          ,,##########################################,,             
                       ,#########################################, ''#####,          
                    ,#############################################,,   '####,        
                  ,##################################################,,,,####,       
                ,###########''''           ''''###############################       
              ,#####''   ,,,,##########,,,,          '''####'''          '####       
            ,##' ,,,,###########################,,,                        '##       
           ' ,,###''''                  '''############,,,                           
         ,,##''                                '''############,,,,        ,,,,,,###''
      ,#''                                            '''#######################'''  
     '                                                          ''''####''''         
             ,#######,   #######,   ,#######,      ##                                
            ,#'     '#,  ##    ##  ,#'     '#,    #''#        ,####,   ,####,        
            ##       ##  ##   ,#'  ##            #'  '#       #'       #'  '#        
            ##       ##  #######   ##           ,######,      #####,   #    #        
            '#,     ,#'  ##    ##  '#,     ,#' ,#      #,     #,   #   #,  ,#        
             '#######'   ##     ##  '#######'  #'      '#     '####' # '####'        



                #########################################################
                #                        -***-                          #
                #          Department of theory and spectroscopy        #
                #                                                       #
                #                      Frank Neese                      #
                #                                                       #
                #     Directorship, Architecture, Infrastructure        #
                #                    SHARK, DRIVERS                     #
                #        Core code/Algorithms in most modules           #
                #                                                       #
                #        Max Planck Institute fuer Kohlenforschung      #
                #                Kaiser Wilhelm Platz 1                 #
                #                 D-45470 Muelheim/Ruhr                 #
                #                      Germany                          #
                #                                                       #
                #                  All rights reserved                  #
                #                        -***-                          #
                #########################################################


                         Program Version 6.0.1  -  RELEASE   -


 With contributions from (in alphabetic order):
[Max-Planck-Institut fuer Kohlenforschung]                               
  Daniel Aravena         : Magnetic Suceptibility                        
  Michael Atanasov       : Ab Initio Ligand Field Theory (pilot matlab implementation)
  Alexander A. Auer      : GIAO ZORA, VPT2 properties, NMR spectrum      
  Ute Becker             : All parallelization in ORCA, NUMFREQ, NUMCALC 
  Giovanni Bistoni       : ED, misc. LED, open-shell LED, HFLD           
  Martin Brehm           : Molecular dynamics                            
  Dmytro Bykov           : pre 5.0 version of the SCF Hessian            
  Marcos Casanova-Páez   : Triplet and SCS-CIS(D). UHF-(DLPNO)-IP/EA/STEOM-CCSD. UHF-CVS-IP/STEOM-CCSD   
  Vijay G. Chilkuri      : MRCI spin determinant printing, contributions to CSF-ICE 
  Pauline Colinet        : FMM embedding                                 
  Dipayan Datta          : RHF DLPNO-CCSD density                        
  Achintya Kumar Dutta   : EOM-CC, STEOM-CC                              
  Nicolas Foglia         : Exact transition moments, OPA infrastructure, MCD improvements    
  Dmitry Ganyushin       : Spin-Orbit,Spin-Spin,Magnetic field MRCI      
  Miquel Garcia-Rates    : C-PCM and meta-GGA Hessian, CCSD/C-PCM, Gaussian charge scheme 
  Tiago L. C. Gouveia    : GS-ROHF, GS-ROCIS                             
  Yang Guo               : DLPNO-NEVPT2, F12-NEVPT2, CIM, IAO-localization        
  Andreas Hansen         : Spin unrestricted coupled pair/coupled cluster methods 
  Ingolf Harden          : AUTO-CI MPn and infrastructure                
  Benjamin Helmich-Paris : MC-RPA, TRAH-(SCF,CASSCF), AVAS, COSX integrals, SCF dyn. polar. 
  Lee Huntington         : MR-EOM, pCC                                   
  Robert Izsak           : Overlap fitted RIJCOSX, COSX-SCS-MP3, EOM     
  Riya Kayal             : Wick's Theorem for AUTO-CI, AUTO-CI UHF-CCSDT 
  Emily Kempfer          : AUTO-CI, RHF CISDT and CCSDT                  
  Christian Kollmar      : KDIIS, OOCD, Brueckner-CCSD(T), CCSD density, CASPT2, CASPT2-K, improved NEVPT2 
  Axel Koslowski         : Symmetry handling                             
  Simone Kossmann        : meta-GGA functionals, TD-DFT gradient, OOMP2, (MP2 Hessian; deprecated post 5.0) 
  Lucas Lang             : DCDCAS                                        
  Marvin Lechner         : AUTO-CI (C++ implementation), FIC-MRCC        
  Spencer Leger          : CASSCF response                               
  Dagmar Lenk            : GEPOL surface, SMD, ORCA-2-JSON               
  Dimitrios Liakos       : Extrapolation schemes; Compound Job, initial MDCI parallelization 
  Dimitrios Manganas     : Further ROCIS development; embedding schemes. LFT, Crystal Embedding 
  Dimitrios Pantazis     : SARC Basis sets                               
  Anastasios Papadopoulos: AUTO-CI, single reference methods and gradients 
  Taras Petrenko         : pre 6.0 DFT Hessian and TD-DFT gradient, (ASA, deprecated), ECA, 1-Electron XAS/XES, NRVS 
  Peter Pinski           : DLPNO-MP2, DLPNO-MP2 Gradient                 
  Christoph Reimann      : Effective Core Potentials                     
  Marius Retegan         : Local ZFS, SOC                                
  Christoph Riplinger    : Optimizer, TS searches, QM/MM, DLPNO-CCSD(T), (RO)-DLPNO pert. Triples 
  Michael Roemelt        : Original ROCIS implementation                 
  Masaaki Saitow         : Open-shell DLPNO-CCSD energy and density      
  Barbara Sandhoefer     : DKH picture change effects                    
  Kantharuban Sivalingam : CASSCF convergence/infrastructure, NEVPT2 and variants, FIC-MRCI 
  Bernardo de Souza      : ESD, SOC TD-DFT                               
  Georgi L. Stoychev     : AutoAux, RI-MP2 NMR, DLPNO-MP2 response, X2C  
  Van Anh Tran           : RI-MP2 g-tensors                              
  Willem Van den Heuvel  : Paramagnetic NMR                              
  Zikuan Wang            : NOTCH, Electric field optimization            
  Frank Wennmohs         : Technical directorship and infrastructure     
  Hang Xu                : AUTO-CI-Response properties                   
                                                                         
[FACCTs GmbH]                                                            
  Markus Bursch, Miquel Garcia-Rates, Christoph Riplinger, Bernardo de Souza, Georgi L. Stoychev 
                                                                 
  APM, Basis sets (HGBS, AHGBS, def-TZVP (Ac-Lr), def2-XVPD (La-Lu)), CI-OPT, improved COSX, DLPNO-Multilevel,           
  DOCKER, DRACO, updates on ESD, GOAT, IRC, LR-CPCM, MBIS, meta-GGA TD-DFT gradient, ML-optimized integration grids, 
  MM, NACMEs, nearIR, NEB, NEB-TS, NL-DFT gradient (VV10), 2- and 3-layer-ONIOM, interface openCOSMO-RS, QMMM,   
  Crystal-QMMM, SF, symmetry and pop. for TD-DFT, r2SCAN hybrids, SOLVATOR                                   
                                                                         
[Other institutions]                                                     
  V. Asgeirsson          : NEB                                           
  Christoph Bannwarth    : sTDA-DFT, sTD-DFT, PBEh-3c, B97-3c, D3        
  Sebastian Ehlert       : rSCAN, r2SCAN, r2SCAN-3c, D4, dhf basis sets  
  Marvin Friede          : D4 for Fr, Ra, Ac-Lr                          
  Lars Goerigk           : TD-DFT with DH, B97 family of functionals     
  Stefan Grimme          : VdW corrections, initial TS optimization, DFT functionals, gCP, sTDA/sTD-DF 
  Waldemar Hujo          : DFT-NL                                        
  H. Jonsson             : NEB                                           
  Holger Kruse           : gCP                                           
  Marcel Mueller         : wB97X-3c, vDZP basis set                      
  Hagen Neugebauer       : wr2SCAN                                       
  Tobias Risthaus        : range-separated hybrid DFT                    
  Lukas Wittmann         : regularized MP2, r2SCAN double-hybrids, wr2SCAN        
                                                                         
We gratefully acknowledge several colleagues who have allowed us to      
interface, adapt or use parts of their codes:                            
  Ed Valeev, F. Pavosevic, A. Kumar             : LibInt (2-el integral package), F12 methods 
  Garnet Chan, S. Sharma, J. Yang, R. Olivares  : DMRG                   
  Ulf Ekstrom                                   : XCFun DFT Library      
  Mihaly Kallay                                 : mrcc  (arbitrary order and MRCC methods)
  Frank Weinhold                                : gennbo (NPA and NBO analysis)           
  Simon Mueller                                 : openCOSMO-RS                            
  Christopher J. Cramer and Donald G. Truhlar   : smd solvation model                     
  S Lehtola, MJT Oliveira, MAL Marques          : LibXC Library                           
  Liviu Ungur et al                             : ANISO software                          


 Your calculation uses the libint2 library for the computation of 2-el integrals
 For citations please refer to: http://libint.valeyev.net

 Your ORCA version has been built with support for libXC version: 6.2.2
 For citations please refer to: https://libxc.gitlab.io

 This ORCA versions uses:
   CBLAS   interface :  Fast vector & matrix operations
   LAPACKE interface :  Fast linear algebra routines
   SCALAPACK package :  Parallel linear algebra routines
   Shared memory     :  Shared parallel matrices
   BLAS/LAPACK       :  OpenBLAS 0.3.27  USE64BITINT DYNAMIC_ARCH NO_AFFINITY Cooperlake SINGLE_THREADED
        Core in use  :  Cooperlake
   Copyright (c) 2011-2014, The OpenBLAS Project


Warning: RI is on but no J-basis has been assigned. Assigning Def2/J (nothing to worry about!)
================================================================================

----- Orbital basis set information -----
Your calculation utilizes the basis: 6-311G*
   H, Li - Ne  : R. Krishnan, J. S. Binkley, R. Seeger and J. A. Pople, J. Chem. Phys. 72, 650 (1980).
   Na - Ar     : A. D. McLean and G. S. Chandler J. Chem. Phys. 72, 5639, (1980).
   K  - Ca     : J.-P. Blaudeau, M. P. McGrath, L. A. Curtiss and L. Radom, J. Chem. Phys. 107, 5016 (1997).
   Ga - Kr     : L. A. Curtiss, M. P. McGrath, J.-P. Blandeau, N. E. Davis, R. C. Binning and L. Radom, J. Chem. Phys. 103, 6104 (1995).
   Pol./Diff.
   H, Li - Cl  : T. Clark, J. Chandrasekhar and P. v. R. Schleyer, J. Comp. Chem. 4, 294 (1983).
   H - Ne      : M. J. Frisch, J. A. Pople and J. S. Binkley, J. Chem. Phys. 80, 3265 (1984).

----- AuxJ basis set information -----
Your calculation utilizes the auxiliary basis: def2/J
   F. Weigend, Phys. Chem. Chem. Phys. 8, 1057 (2006).

================================================================================
                                        WARNINGS
                       Please study these warnings very carefully!
================================================================================


WARNING: Geometry Optimization
  ===> : Switching off AutoStart
         For restart on a previous wavefunction, please use MOREAD

================================================================================
                                       INPUT FILE
================================================================================
NAME = 3.inp
|  1> ! B3LYP/G OPT FREQ 6-311G* CPCM(Water)
|  2> 
|  3> * xyz 1 1 
|  4> C  -3.47262362536682633873 -0.55193254196802521427 1.86903503578289642562
|  5> C  -3.33571681238690143090 -1.34067757393425002199 3.01189029333151259138
|  6> C  -2.11837532903113112681 -1.46614343529008928080 3.63390445612063528458
|  7> C  -2.41012802445500362580 0.19374261391593061710 1.40900783970818022084
|  8> C  -1.17308636175141023372 0.17378518712336643581 2.10023840042076770374
|  9> O  -2.40479884065975202390 0.85556992012993915431 0.20530115756348199518
| 10> C  -1.00936047457184763232 -0.74715671955676676852 3.16885006032779026341
| 11> C  0.29173118375916318179 -0.97724024877250692533 3.70427335193989071271
| 12> C  1.38757802456538481550 -0.40472365184518976911 3.15360773878116429358
| 13> C  -0.05095041222531615510 0.95938024440936031656 1.71192218924951422565
| 14> C  1.25187337929897246624 0.57756747828017473978 2.13175175596571353509
| 15> N  -0.18170916306484086178 2.08383285219238656438 0.95649450358831600294
| 16> C  0.88345702605499765170 2.65442165993161482973 0.37665300211494090465
| 17> C  2.16354288890918233790 2.19129013731814481503 0.59405212413334318455
| 18> C  2.35649381971672688962 1.20487519722312952375 1.54517928911074586829
| 19> C  -3.56441661146120747361 1.22310041602902663804 -0.44177655870809839911
| 20> O  -4.61206177056515720381 1.44130259076155509135 0.14423442620173954065
| 21> N  -3.37301168087613989499 1.34580668655748159068 -1.75131445415992592629
| 22> C  -2.11208268607946880735 1.04610947884251981321 -2.40099502928254837641
| 23> C  -4.46818141947399194436 1.75023725402230834192 -2.60602182213991140358
| 24> H  -4.66310120474001443824 0.97566843001962599846 -3.34793313734016040328
| 25> H  -4.22122681153703993573 2.68269232601413198935 -3.11285838752481458513
| 26> H  -5.35837596540423444225 1.89552034261639223978 -1.99764997475204442168
| 27> H  -1.28387329519501669495 1.41489626408255997347 -1.80196383297470585916
| 28> H  -2.10554574653051584932 1.53860933621706674757 -3.36904399753946082186
| 29> H  -2.00155004062652164265 -0.02991460166020876166 -2.54699824136122421336
| 30> H  -1.99777377565876079757 -2.13548570862679376603 4.47041726179352316706
| 31> H  -4.41434038732554068218 -0.52480431111133873934 1.34475005939675362754
| 32> H  -4.19259716118374292648 -1.88901050704028805605 3.36923825316826919263
| 33> H  0.38189286658372023631 -1.67654301160632734913 4.52016426638660284709
| 34> H  2.38062021727702743945 -0.65484036479697116384 3.48975919148571600559
| 35> H  0.67648598336959508970 3.51955694424709264467 -0.23537747205091896774
| 36> H  2.99375163957157797157 2.64993198902718285481 0.08372129502565339720
| 37> H  3.35042962765030294392 0.91242300367458017973 1.84660572532020839098
| 38> P  -1.55986752424781616178 3.17011090342129042696 1.17553297327421302221
| 39> O  -2.52953514779535426626 2.73753480243609637057 2.18329205697414874265
| 40> O  -1.93000200864171356230 3.42251037463028318086 -0.32570295498336343520
| 41> O  -0.81093828792150413065 4.51230684005699256289 1.57678520211602002377
| 42> C  -2.50934708158992503257 4.65514956668375745608 -0.79212166237692960280
| 43> C  -0.69642571237440453746 4.90242632314934034810 2.94897349361985217087
| 44> C  -3.79834269181405703719 4.98514820635075395217 -0.06818013706158265741
| 45> H  -2.68535362344398498280 4.48016357619379235189 -1.85445556740367756277
| 46> H  -1.78155146481919413048 5.45872564889594347193 -0.66006897702082500956
| 47> H  -4.25546899612098616927 5.86640263027917541194 -0.50776612461441872348
| 48> H  -3.59936061404683815823 5.17452987794908203512 0.98609879425827062782
| 49> H  -4.49670376902294233190 4.15187483408328983359 -0.13045494298682380752
| 50> C  0.39694668046098358083 4.12828248896290261882 3.66003216040150336497
| 51> H  -1.65958628509027894538 4.74276124980793145625 3.44285648365662089176
| 52> H  -0.47317537596664638322 5.97020306629670827192 2.91736546236429017398
| 53> H  1.33656323120143127881 4.21730302126395173445 3.12113652778836669910
| 54> H  0.11809435758469843947 3.07888704437652638291 3.73920841390778679880
| 55> H  0.52477524563011801462 4.52889185833250440538 4.66120000802540257467
| 56> *
| 57> 
| 58>                          ****END OF INPUT****
================================================================================

                       *****************************
                       * Geometry Optimization Run *
                       *****************************

Geometry optimization settings:
Update method            Update   .... BFGS
Choice of coordinates    CoordSys .... (2022) Redundant Internals
Initial Hessian          InHess   .... Almloef's Model
Max. no of cycles        MaxIter  .... 156

Convergence Tolerances:
Energy Change            TolE     ....  5.0000e-06 Eh
Max. Gradient            TolMAXG  ....  3.0000e-04 Eh/bohr
RMS Gradient             TolRMSG  ....  1.0000e-04 Eh/bohr
Max. Displacement        TolMAXD  ....  4.0000e-03 bohr
RMS Displacement         TolRMSD  ....  2.0000e-03 bohr
Strict Convergence                .... False

------------------------------------------------------------------------------
                        ORCA OPTIMIZATION COORDINATE SETUP
------------------------------------------------------------------------------

The optimization will be done in redundant internal coordinates (2022)
Making redundant internal coordinates   ...  (2022 redundants) done
Evaluating the initial hessian          ...  (Almloef) done
Evaluating the coordinates              ...  done
Calculating the B-matrix                .... done
Calculating the G-matrix                .... done
Diagonalizing the G-matrix              .... done
Small eigenvalue found = 2.685e-03
Small eigenvalue found = 5.146e-03
Small eigenvalue found = 6.654e-03
Small eigenvalue found = 8.235e-03
Small eigenvalue found = 1.180e-02
Small eigenvalue found = 1.580e-02
Small eigenvalue found = 1.898e-02
Small eigenvalue found = 2.249e-02
Small eigenvalue found = 2.444e-02
The first mode is                       ....  110
The number of degrees of freedom        ....  150

    -----------------------------------------------------------------
                    Redundant Internal Coordinates


    -----------------------------------------------------------------
         Definition                    Initial Value    Approx d2E/dq
    -----------------------------------------------------------------
      1. B(C   1,C   0)                  1.3953         0.612654   
      2. B(C   2,C   1)                  1.3728         0.665564   
      3. B(C   3,C   0)                  1.3772         0.654988   
      4. B(C   4,C   3)                  1.4172         0.565373   
      5. B(O   5,C   3)                  1.3737         0.594207   
      6. B(C   6,C   2)                  1.4011         0.599792   
      7. B(C   6,C   4)                  1.4202         0.559256   
      8. B(C   7,C   6)                  1.4256         0.548117   
      9. B(C   8,C   7)                  1.3535         0.714522   
     10. B(C   9,C   4)                  1.4238         0.551888   
     11. B(C  10,C   8)                  1.4239         0.551630   
     12. B(C  10,C   9)                  1.4211         0.557439   
     13. B(N  11,C   9)                  1.3609         0.622639   
     14. B(C  12,N  11)                  1.3403         0.671724   
     15. B(C  13,C  12)                  1.3785         0.651661   
     16. B(C  14,C  13)                  1.3838         0.639203   
     17. B(C  14,C  10)                  1.3992         0.604027   
     18. B(C  15,O   5)                  1.3779         0.585116   
     19. B(O  16,C  15)                  1.2201         1.044674   
     20. B(N  17,C  15)                  1.3291         0.699830   
     21. B(C  18,N  17)                  1.4498         0.449272   
     22. B(C  19,N  17)                  1.4469         0.454061   
     23. B(H  20,C  19)                  1.0901         0.359928   
     24. B(H  21,C  19)                  1.0897         0.360560   
     25. B(H  22,C  19)                  1.0880         0.362801   
     26. B(H  23,C  18)                  1.0866         0.364581   
     27. B(H  24,C  18)                  1.0861         0.365232   
     28. B(H  25,C  18)                  1.0915         0.358127   
     29. B(H  26,C   2)                  1.0781         0.376180   
     30. B(H  27,C   0)                  1.0782         0.376101   
     31. B(H  28,C   1)                  1.0782         0.375992   
     32. B(H  29,C   7)                  1.0783         0.375851   
     33. B(H  30,C   8)                  1.0778         0.376583   
     34. B(H  31,C  12)                  1.0798         0.373907   
     35. B(H  32,H  23)                  4.8352         0.000000   
     36. B(H  32,C  13)                  1.0770         0.377645   
     37. B(H  33,C  14)                  1.0790         0.374915   
     38. B(P  34,N  11)                  1.7684         0.468413   
     39. B(O  35,P  34)                  1.4639         1.433813   
     40. B(O  36,P  34)                  1.5667         0.982934   
     41. B(O  37,P  34)                  1.5885         0.907083   
     42. B(C  38,O  36)                  1.4396         0.466300   
     43. B(C  39,O  37)                  1.4312         0.481076   
     44. B(C  40,C  38)                  1.5148         0.395085   
     45. B(H  41,H  21)                  2.6783         0.000202   
     46. B(H  41,C  38)                  1.0909         0.358858   
     47. B(H  42,C  38)                  1.0922         0.357227   
     48. B(H  43,C  40)                  1.0857         0.365793   
     49. B(H  44,C  40)                  1.0895         0.360791   
     50. B(H  45,C  40)                  1.0890         0.361419   
     51. B(C  46,C  39)                  1.5167         0.392287   
     52. B(H  47,C  39)                  1.0941         0.354695   
     53. B(H  48,C  39)                  1.0913         0.358353   
     54. B(H  49,C  46)                  1.0868         0.364310   
     55. B(H  50,C  46)                  1.0887         0.361830   
     56. B(H  51,C  46)                  1.0859         0.365573   
     57. A(C   1,C   0,C   3)          120.2630         0.437439   
     58. A(C   1,C   0,H  27)          119.8814         0.354801   
     59. A(C   3,C   0,H  27)          119.8555         0.358851   
     60. A(C   0,C   1,C   2)          120.6493         0.438705   
     61. A(C   0,C   1,H  28)          118.7466         0.354783   
     62. A(C   2,C   1,H  28)          120.5351         0.359813   
     63. A(C   1,C   2,H  26)          120.4977         0.359844   
     64. A(C   6,C   2,H  26)          119.1819         0.353540   
     65. A(C   1,C   2,C   6)          120.3048         0.437029   
     66. A(C   4,C   3,O   5)          115.5180         0.420948   
     67. A(C   0,C   3,O   5)          123.8196         0.432189   
     68. A(C   0,C   3,C   4)          120.1910         0.431162   
     69. A(C   6,C   4,C   9)          118.1752         0.417343   
     70. A(C   3,C   4,C   9)          123.1719         0.418152   
     71. A(C   3,C   4,C   6)          118.4744         0.419142   
     72. A(C   3,O   5,C  15)          122.4640         0.420785   
     73. A(C   4,C   6,C   7)          119.5030         0.416834   
     74. A(C   2,C   6,C   7)          120.9905         0.422067   
     75. A(C   2,C   6,C   4)          119.4239         0.423587   
     76. A(C   6,C   7,H  29)          117.7183         0.348149   
     77. A(C   6,C   7,C   8)          121.1883         0.435527   
     78. A(C   8,C   7,H  29)          120.9605         0.364176   
     79. A(C  10,C   8,H  30)          118.1458         0.348638   
     80. A(C   7,C   8,H  30)          121.3941         0.364297   
     81. A(C   7,C   8,C  10)          120.4390         0.436028   
     82. A(C   4,C   9,C  10)          119.5868         0.417101   
     83. A(C  10,C   9,N  11)          118.2988         0.423407   
     84. A(C   4,C   9,N  11)          122.1105         0.422651   
     85. A(C   9,C  10,C  14)          118.6509         0.423874   
     86. A(C   8,C  10,C  14)          122.3369         0.423081   
     87. A(C   8,C  10,C   9)          118.9959         0.417066   
     88. A(C   9,N  11,P  34)          120.9072         0.435447   
     89. A(C   9,N  11,C  12)          121.0327         0.434955   
     90. A(C  12,N  11,P  34)          114.2945         0.441448   
     91. A(N  11,C  12,H  31)          115.7208         0.357807   
     92. A(N  11,C  12,C  13)          121.7842         0.441441   
     93. A(C  13,C  12,H  31)          122.4499         0.358183   
     94. A(C  12,C  13,H  32)          119.8666         0.358790   
     95. A(C  12,C  13,C  14)          118.5127         0.440396   
     96. A(C  14,C  13,H  32)          121.4491         0.357614   
     97. A(C  10,C  14,H  33)          119.2477         0.353760   
     98. A(C  10,C  14,C  13)          119.8446         0.434410   
     99. A(C  13,C  14,H  33)          120.9072         0.357173   
    100. A(O  16,C  15,N  17)          125.4768         0.481569   
    101. A(O   5,C  15,N  17)          111.4772         0.433301   
    102. A(O   5,C  15,O  16)          123.0114         0.465980   
    103. A(C  18,N  17,C  19)          116.8325         0.383067   
    104. A(C  15,N  17,C  19)          119.9218         0.414097   
    105. A(C  15,N  17,C  18)          123.2084         0.413317   
    106. A(N  17,C  18,H  25)          110.5980         0.332033   
    107. A(H  23,C  18,H  24)          109.4421         0.292054   
    108. A(H  23,C  18,H  25)          109.3374         0.291154   
    109. A(N  17,C  18,H  24)          108.1135         0.333116   
    110. A(N  17,C  18,H  23)          110.2247         0.333017   
    111. A(H  24,C  18,H  25)          109.0977         0.291235   
    112. A(H  21,C  19,H  22)          109.3454         0.291240   
    113. A(H  20,C  19,H  22)          109.2169         0.291159   
    114. A(N  17,C  19,H  22)          109.0459         0.333333   
    115. A(H  20,C  19,H  21)          109.3896         0.290876   
    116. A(N  17,C  19,H  21)          110.0241         0.332990   
    117. A(N  17,C  19,H  20)          109.8015         0.332894   
    118. A(N  11,P  34,O  36)           99.4620         0.506417   
    119. A(N  11,P  34,O  35)          114.8326         0.543655   
    120. A(O  36,P  34,O  37)          102.5510         0.573767   
    121. A(O  35,P  34,O  37)          112.8352         0.617013   
    122. A(N  11,P  34,O  37)          100.5377         0.498898   
    123. A(O  35,P  34,O  36)          123.4205         0.626699   
    124. A(P  34,O  36,C  38)          122.9201         0.472771   
    125. A(P  34,O  37,C  39)          120.6794         0.468529   
    126. A(H  41,C  38,H  42)          110.0756         0.290316   
    127. A(C  40,C  38,H  42)          110.4249         0.326888   
    128. A(O  36,C  38,H  42)          108.8218         0.333948   
    129. A(C  40,C  38,H  41)          111.2875         0.327133   
    130. A(O  36,C  38,H  41)          104.0681         0.334201   
    131. A(O  36,C  38,C  40)          111.9708         0.378745   
    132. A(C  46,C  39,H  48)          111.4389         0.326675   
    133. A(O  37,C  39,H  48)          104.7918         0.335860   
    134. A(C  46,C  39,H  47)          110.3954         0.326123   
    135. A(O  37,C  39,H  47)          108.8192         0.335287   
    136. A(O  37,C  39,C  46)          111.5955         0.380329   
    137. A(H  47,C  39,H  48)          109.6297         0.289928   
    138. A(H  44,C  40,H  45)          107.7864         0.291094   
    139. A(H  43,C  40,H  45)          109.1421         0.291725   
    140. A(C  38,C  40,H  45)          110.5900         0.327517   
    141. A(H  43,C  40,H  44)          109.1232         0.291645   
    142. A(C  38,C  40,H  44)          110.1778         0.327423   
    143. A(C  38,C  40,H  43)          109.9747         0.328167   
    144. A(H  50,C  46,H  51)          108.5846         0.291750   
    145. A(H  49,C  46,H  51)          108.9754         0.292063   
    146. A(C  39,C  46,H  51)          109.1960         0.327750   
    147. A(H  49,C  46,H  50)          109.6608         0.291591   
    148. A(C  39,C  46,H  50)          109.9646         0.327195   
    149. A(C  39,C  46,H  49)          110.4246         0.327563   
    150. D(C   2,C   1,C   0,C   3)     -5.0103         0.025936   
    151. D(H  28,C   1,C   0,H  27)     -1.9098         0.025936   
    152. D(C   2,C   1,C   0,H  27)    175.0853         0.025936   
    153. D(H  28,C   1,C   0,C   3)    177.9946         0.025936   
    154. D(C   6,C   2,C   1,H  28)   -179.7389         0.030949   
    155. D(H  26,C   2,C   1,C   0)   -175.2312         0.030949   
    156. D(C   6,C   2,C   1,C   0)      3.3199         0.030949   
    157. D(H  26,C   2,C   1,H  28)      1.7100         0.030949   
    158. D(C   4,C   3,C   0,H  27)    179.3689         0.029903   
    159. D(O   5,C   3,C   0,C   1)    171.2262         0.029903   
    160. D(O   5,C   3,C   0,H  27)     -8.8694         0.029903   
    161. D(C   4,C   3,C   0,C   1)     -0.5355         0.029903   
    162. D(C   6,C   4,C   3,O   5)   -164.9178         0.021912   
    163. D(C   9,C   4,C   3,C   0)   -177.4482         0.021912   
    164. D(C   6,C   4,C   3,C   0)      7.5020         0.021912   
    165. D(C   9,C   4,C   3,O   5)     10.1320         0.021912   
    166. D(C  15,O   5,C   3,C   4)   -165.2089         0.025755   
    167. D(C  15,O   5,C   3,C   0)     22.6794         0.025755   
    168. D(C   7,C   6,C   4,C   9)     -7.6736         0.021422   
    169. D(C   2,C   6,C   4,C   9)    175.5980         0.021422   
    170. D(C   2,C   6,C   4,C   3)     -9.1018         0.021422   
    171. D(C   7,C   6,C   4,C   3)    167.6265         0.021422   
    172. D(C   7,C   6,C   2,H  26)      5.6972         0.024799   
    173. D(C   4,C   6,C   2,H  26)   -177.6244         0.024799   
    174. D(C   4,C   6,C   2,C   1)      3.8055         0.024799   
    175. D(C   7,C   6,C   2,C   1)   -172.8729         0.024799   
    176. D(H  29,C   7,C   6,C   4)    179.5361         0.020548   
    177. D(H  29,C   7,C   6,C   2)     -3.7880         0.020548   
    178. D(C   8,C   7,C   6,C   4)     -4.6156         0.020548   
    179. D(C   8,C   7,C   6,C   2)    172.0602         0.020548   
    180. D(C  10,C   8,C   7,C   6)      8.1052         0.036085   
    181. D(H  30,C   8,C   7,H  29)      2.1177         0.036085   
    182. D(H  30,C   8,C   7,C   6)   -173.5961         0.036085   
    183. D(C  10,C   8,C   7,H  29)   -176.1811         0.036085   
    184. D(N  11,C   9,C   4,C   6)   -162.8748         0.020841   
    185. D(N  11,C   9,C   4,C   3)     22.0615         0.020841   
    186. D(C  10,C   9,C   4,C   6)     16.4045         0.020841   
    187. D(C  10,C   9,C   4,C   3)   -158.6592         0.020841   
    188. D(C  14,C  10,C   9,N  11)    -12.4265         0.021278   
    189. D(C  14,C  10,C   9,C   4)    168.2668         0.021278   
    190. D(C   8,C  10,C   9,N  11)    166.1350         0.021278   
    191. D(C   8,C  10,C   9,C   4)    -13.1717         0.021278   
    192. D(C  14,C  10,C   8,H  30)      0.9579         0.020821   
    193. D(C  14,C  10,C   8,C   7)    179.3110         0.020821   
    194. D(C   9,C  10,C   8,H  30)   -177.5479         0.020821   
    195. D(C   9,C  10,C   8,C   7)      0.8051         0.020821   
    196. D(P  34,N  11,C   9,C  10)   -142.5099         0.031413   
    197. D(P  34,N  11,C   9,C   4)     36.7783         0.031413   
    198. D(C  12,N  11,C   9,C  10)     14.3856         0.031413   
    199. D(C  12,N  11,C   9,C   4)   -166.3262         0.031413   
    200. D(H  31,C  12,N  11,P  34)    -24.0426         0.037042   
    201. D(H  31,C  12,N  11,C   9)    177.6361         0.037042   
    202. D(C  13,C  12,N  11,P  34)    153.5707         0.037042   
    203. D(C  13,C  12,N  11,C   9)     -4.7506         0.037042   
    204. D(H  32,C  13,C  12,H  31)     -4.8104         0.029579   
    205. D(H  32,C  13,C  12,N  11)    177.7377         0.029579   
    206. D(C  14,C  13,C  12,H  31)    170.4982         0.029579   
    207. D(C  14,C  13,C  12,N  11)     -6.9537         0.029579   
    208. D(C  10,C  14,C  13,C  12)      8.4490         0.028383   
    209. D(H  33,C  14,C  10,C   9)   -179.1349         0.025170   
    210. D(H  33,C  14,C  10,C   8)      2.3543         0.025170   
    211. D(C  13,C  14,C  10,C   9)      1.1053         0.025170   
    212. D(C  13,C  14,C  10,C   8)   -177.4055         0.025170   
    213. D(H  33,C  14,C  13,H  32)      3.9241         0.028383   
    214. D(H  33,C  14,C  13,C  12)   -171.3068         0.028383   
    215. D(C  10,C  14,C  13,H  32)   -176.3201         0.028383   
    216. D(N  17,C  15,O   5,C   3)   -155.0498         0.024926   
    217. D(O  16,C  15,O   5,C   3)     26.9862         0.024926   
    218. D(C  19,N  17,C  15,O  16)     -0.9609         0.040527   
    219. D(C  19,N  17,C  15,O   5)   -178.8644         0.040527   
    220. D(C  18,N  17,C  15,O  16)   -178.6683         0.040527   
    221. D(C  18,N  17,C  15,O   5)      3.4283         0.040527   
    222. D(H  25,C  18,N  17,C  15)     79.9022         0.017218   
    223. D(H  24,C  18,N  17,C  19)     21.5149         0.017218   
    224. D(H  24,C  18,N  17,C  15)   -160.7119         0.017218   
    225. D(H  23,C  18,N  17,C  19)    141.1012         0.017218   
    226. D(H  23,C  18,N  17,C  15)    -41.1255         0.017218   
    227. D(H  22,C  19,N  17,C  15)     -0.5724         0.017592   
    228. D(H  21,C  19,N  17,C  18)    -62.8006         0.017592   
    229. D(H  21,C  19,N  17,C  15)    119.3489         0.017592   
    230. D(H  20,C  19,N  17,C  18)     57.6487         0.017592   
    231. D(H  20,C  19,N  17,C  15)   -120.2017         0.017592   
    232. D(O  37,P  34,N  11,C   9)    119.7574         0.004923   
    233. D(O  36,P  34,N  11,C  12)     66.1849         0.004923   
    234. D(O  36,P  34,N  11,C   9)   -135.4639         0.004923   
    235. D(O  35,P  34,N  11,C  12)   -159.9957         0.004923   
    236. D(O  35,P  34,N  11,C   9)     -1.6445         0.004923   
    237. D(C  38,O  36,P  34,O  37)    -45.9225         0.016589   
    238. D(C  38,O  36,P  34,O  35)     82.6320         0.016589   
    239. D(C  38,O  36,P  34,N  11)   -149.0457         0.016589   
    240. D(C  39,O  37,P  34,O  36)    158.8374         0.014190   
    241. D(C  39,O  37,P  34,O  35)     23.9275         0.014190   
    242. D(C  39,O  37,P  34,N  11)    -98.8808         0.014190   
    243. D(H  42,C  38,O  36,P  34)     65.4522         0.017135   
    244. D(H  41,C  38,O  36,P  34)   -177.2072         0.017135   
    245. D(C  40,C  38,O  36,P  34)    -56.8971         0.017135   
    246. D(H  48,C  39,O  37,P  34)   -160.8605         0.018259   
    247. D(H  47,C  39,O  37,P  34)    -43.6624         0.018259   
    248. D(C  46,C  39,O  37,P  34)     78.4023         0.018259   
    249. D(H  44,C  40,C  38,H  42)    -56.3841         0.012396   
    250. D(H  44,C  40,C  38,H  41)   -178.9456         0.012396   
    251. D(H  44,C  40,C  38,O  36)     65.0466         0.012396   
    252. D(H  43,C  40,C  38,H  42)     63.9428         0.012396   
    253. D(H  43,C  40,C  38,H  41)    -58.6187         0.012396   
    254. D(H  43,C  40,C  38,O  36)   -174.6265         0.012396   
    255. D(H  50,C  46,C  39,H  48)    176.0659         0.012228   
    256. D(H  50,C  46,C  39,H  47)     53.9895         0.012228   
    257. D(H  50,C  46,C  39,O  37)    -67.1628         0.012228   
    258. D(H  49,C  46,C  39,H  48)    -62.7859         0.012228   
    259. D(H  49,C  46,C  39,H  47)    175.1377         0.012228   
    260. D(H  49,C  46,C  39,O  37)     53.9854         0.012228   
    -----------------------------------------------------------------

Number of atoms                         .... 52
Number of degrees of freedom            .... 260


         *************************************************************
         *                GEOMETRY OPTIMIZATION CYCLE   1            *
         *************************************************************
---------------------------------
CARTESIAN COORDINATES (ANGSTROEM)
---------------------------------
  C     -3.472624   -0.551933    1.869035
  C     -3.335717   -1.340678    3.011890
  C     -2.118375   -1.466143    3.633904
  C     -2.410128    0.193743    1.409008
  C     -1.173086    0.173785    2.100238
  O     -2.404799    0.855570    0.205301
  C     -1.009360   -0.747157    3.168850
  C      0.291731   -0.977240    3.704273
  C      1.387578   -0.404724    3.153608
  C     -0.050950    0.959380    1.711922
  C      1.251873    0.577567    2.131752
  N     -0.181709    2.083833    0.956495
  C      0.883457    2.654422    0.376653
  C      2.163543    2.191290    0.594052
  C      2.356494    1.204875    1.545179
  C     -3.564417    1.223100   -0.441777
  O     -4.612062    1.441303    0.144234
  N     -3.373012    1.345807   -1.751314
  C     -2.112083    1.046109   -2.400995
  C     -4.468181    1.750237   -2.606022
  H     -4.663101    0.975668   -3.347933
  H     -4.221227    2.682692   -3.112858
  H     -5.358376    1.895520   -1.997650
  H     -1.283873    1.414896   -1.801964
  H     -2.105546    1.538609   -3.369044
  H     -2.001550   -0.029915   -2.546998
  H     -1.997774   -2.135486    4.470417
  H     -4.414340   -0.524804    1.344750
  H     -4.192597   -1.889011    3.369238
  H      0.381893   -1.676543    4.520164
  H      2.380620   -0.654840    3.489759
  H      0.676486    3.519557   -0.235377
  H      2.993752    2.649932    0.083721
  H      3.350430    0.912423    1.846606
  P     -1.559868    3.170111    1.175533
  O     -2.529535    2.737535    2.183292
  O     -1.930002    3.422510   -0.325703
  O     -0.810938    4.512307    1.576785
  C     -2.509347    4.655150   -0.792122
  C     -0.696426    4.902426    2.948973
  C     -3.798343    4.985148   -0.068180
  H     -2.685354    4.480164   -1.854456
  H     -1.781551    5.458726   -0.660069
  H     -4.255469    5.866403   -0.507766
  H     -3.599361    5.174530    0.986099
  H     -4.496704    4.151875   -0.130455
  C      0.396947    4.128282    3.660032
  H     -1.659586    4.742761    3.442856
  H     -0.473175    5.970203    2.917365
  H      1.336563    4.217303    3.121137
  H      0.118094    3.078887    3.739208
  H      0.524775    4.528892    4.661200

----------------------------
CARTESIAN COORDINATES (A.U.)
----------------------------
  NO LB      ZA    FRAG     MASS         X           Y           Z
   0 C     6.0000    0    12.011   -6.562308   -1.043001    3.531964
   1 C     6.0000    0    12.011   -6.303591   -2.533513    5.691648
   2 C     6.0000    0    12.011   -4.003149   -2.770610    6.867084
   3 C     6.0000    0    12.011   -4.554482    0.366120    2.662639
   4 C     6.0000    0    12.011   -2.216812    0.328406    3.968875
   5 O     8.0000    0    15.999   -4.544411    1.616793    0.387963
   6 C     6.0000    0    12.011   -1.907415   -1.411922    5.988259
   7 C     6.0000    0    12.011    0.551292   -1.846716    7.000062
   8 C     6.0000    0    12.011    2.622142   -0.764817    5.959455
   9 C     6.0000    0    12.011   -0.096282    1.812966    3.235064
  10 C     6.0000    0    12.011    2.365698    1.091444    4.028427
  11 N     7.0000    0    14.007   -0.343381    3.937873    1.807513
  12 C     6.0000    0    12.011    1.669492    5.016130    0.711771
  13 C     6.0000    0    12.011    4.088504    4.140938    1.122596
  14 C     6.0000    0    12.011    4.453128    2.276884    2.919966
  15 C     6.0000    0    12.011   -6.735771    2.311325   -0.834837
  16 O     8.0000    0    15.999   -8.715534    2.723667    0.272564
  17 N     7.0000    0    14.007   -6.374068    2.543206   -3.309505
  18 C     6.0000    0    12.011   -3.991258    1.976860   -4.537223
  19 C     6.0000    0    12.011   -8.443639    3.307469   -4.924668
  20 H     1.0000    0     1.008   -8.811984    1.843746   -6.326677
  21 H     1.0000    0     1.008   -7.976963    5.069554   -5.882450
  22 H     1.0000    0     1.008  -10.125863    3.582014   -3.775011
  23 H     1.0000    0     1.008   -2.426169    2.673766   -3.405218
  24 H     1.0000    0     1.008   -3.978905    2.907550   -6.366570
  25 H     1.0000    0     1.008   -3.782381   -0.056530   -4.813129
  26 H     1.0000    0     1.008   -3.775245   -4.035483    8.447864
  27 H     1.0000    0     1.008   -8.341894   -0.991736    2.541209
  28 H     1.0000    0     1.008   -7.922860   -3.569713    6.366938
  29 H     1.0000    0     1.008    0.721673   -3.168207    8.541873
  30 H     1.0000    0     1.008    4.498720   -1.237469    6.594689
  31 H     1.0000    0     1.008    1.278373    6.650999   -0.444799
  32 H     1.0000    0     1.008    5.657371    5.007646    0.158210
  33 H     1.0000    0     1.008    6.331394    1.724230    3.489579
  34 P    15.0000    0    30.974   -2.947722    5.990641    2.221435
  35 O     8.0000    0    15.999   -4.780129    5.173191    4.125824
  36 O     8.0000    0    15.999   -3.647175    6.467607   -0.615489
  37 O     8.0000    0    15.999   -1.532451    8.527024    2.979692
  38 C     6.0000    0    12.011   -4.741979    8.796958   -1.496893
  39 C     6.0000    0    12.011   -1.316054    9.264243    5.572752
  40 C     6.0000    0    12.011   -7.177827    9.420565   -0.128842
  41 H     1.0000    0     1.008   -5.074583    8.466282   -3.504413
  42 H     1.0000    0     1.008   -3.366644   10.315497   -1.247350
  43 H     1.0000    0     1.008   -8.041671   11.085894   -0.959539
  44 H     1.0000    0     1.008   -6.801806    9.778444    1.863457
  45 H     1.0000    0     1.008   -8.497539    7.845906   -0.246524
  46 C     6.0000    0    12.011    0.750121    7.801323    6.916458
  47 H     1.0000    0     1.008   -3.136164    8.962520    6.506056
  48 H     1.0000    0     1.008   -0.894172   11.282049    5.513022
  49 H     1.0000    0     1.008    2.525738    7.969548    5.898093
  50 H     1.0000    0     1.008    0.223166    5.818253    7.066080
  51 H     1.0000    0     1.008    0.991681    8.558365    8.808391

--------------------------------
INTERNAL COORDINATES (ANGSTROEM)
--------------------------------
 C      0   0   0     0.000000000000     0.00000000     0.00000000
 C      1   0   0     1.395342373971     0.00000000     0.00000000
 C      2   1   0     1.372794080762   120.64926141     0.00000000
 C      1   2   3     1.377154080409   120.26299244   354.98966952
 C      4   1   2     1.417205017706   120.19102688   359.46451676
 O      4   1   2     1.373664282163   123.81959111   171.22623537
 C      3   2   1     1.401117923609   120.30480412     3.31991937
 C      7   3   2     1.425642323655   120.99053243   187.12707966
 C      8   7   3     1.353472633553   121.18830455   172.06019254
 C      5   4   1     1.423776022803   123.17187019   182.55184882
 C     10   5   4     1.421051612444   119.58684728   201.34076989
 N     10   5   4     1.360941771838   122.11053229    22.06145957
 C     12  10   5     1.340286075729   121.03271983   193.67378382
 C     13  12  10     1.378540170533   121.78415962   355.24938476
 C     14  13  12     1.383794558343   118.51271296   353.04633045
 C      6   4   1     1.377861245071   122.46399289    22.67939058
 O     16   6   4     1.220074359573   123.01139104    26.98624394
 N     16   6   4     1.329128351930   111.47716576   204.95022699
 C     18  16   6     1.449774187907   123.20836377     3.42825188
 C     18  16   6     1.446888221363   119.92183002   181.13564898
 H     20  18  16     1.090129802100   109.80146911   239.79827918
 H     20  18  16     1.089652395801   110.02406935   119.34894962
 H     20  18  16     1.087965904856   109.04593600   359.42763296
 H     19  18  16     1.086633729583   110.22466022   318.87445365
 H     19  18  16     1.086148077398   108.11346417   199.28811788
 H     19  18  16     1.091495407901   110.59801808    79.90220126
 H      3   2   1     1.078108291224   120.49768245   184.76881194
 H      1   2   3     1.078165635293   119.88139623   175.08528335
 H      2   1   3     1.078244175538   118.74661168   183.00490332
 H      8   7   3     1.078346636028   117.71831096   356.21195354
 H      9   8   7     1.077816758897   121.39413948   186.40390480
 H     13  12  10     1.079758016403   115.72082206   177.63605230
 H     14  13  12     1.077049893437   119.86655655   177.73771882
 H     15  14  13     1.079024824668   120.90722166   188.69315570
 P     12  10   5     1.768416897760   120.90723097    36.77834915
 O     35  12  10     1.463883791180   114.83258177   358.35548244
 O     35  12  10     1.566657059441    99.46197967   224.53614028
 O     35  12  10     1.588517637452   100.53766321   119.75735481
 C     37  35  12     1.439648047942   122.92006333   210.95425569
 C     38  35  12     1.431155843501   120.67935664   261.11922501
 C     39  37  35     1.514760745938   111.97080640   303.10288430
 H     39  37  35     1.090940752476   104.06809547   182.79277386
 H     39  37  35     1.092180796116   108.82180164    65.45215162
 H     41  39  37     1.085730011668   109.97473345   185.37345491
 H     41  39  37     1.089478476077   110.17779107    65.04655079
 H     41  39  37     1.089004526411   110.59000241   305.98775478
 C     40  38  35     1.516695847238   111.59549084    78.40232240
 H     40  38  35     1.094116827550   108.81923941   316.33764027
 H     40  38  35     1.091323487126   104.79181717   199.13948695
 H     47  40  38     1.086835967589   110.42461359    53.98539367
 H     47  40  38     1.088695685769   109.96462759   292.83715547
 H     47  40  38     1.085893672519   109.19596211   173.79059271

---------------------------
INTERNAL COORDINATES (A.U.)
---------------------------
 C      0   0   0     0.000000000000     0.00000000     0.00000000
 C      1   0   0     2.636814949860     0.00000000     0.00000000
 C      2   1   0     2.594204850908   120.64926141     0.00000000
 C      1   2   3     2.602444056186   120.26299244   354.98966952
 C      4   1   2     2.678129359084   120.19102688   359.46451676
 O      4   1   2     2.595849293237   123.81959111   171.22623537
 C      3   2   1     2.647729156950   120.30480412     3.31991937
 C      7   3   2     2.694073556635   120.99053243   187.12707966
 C      8   7   3     2.557692607173   121.18830455   172.06019254
 C      5   4   1     2.690546759142   123.17187019   182.55184882
 C     10   5   4     2.685398369687   119.58684728   201.34076989
 N     10   5   4     2.571807232988   122.11053229    22.06145957
 C     12  10   5     2.532773624235   121.03271983   193.67378382
 C     13  12  10     2.605063386916   121.78415962   355.24938476
 C     14  13  12     2.614992740879   118.51271296   353.04633045
 C      6   4   1     2.603780403729   122.46399289    22.67939058
 O     16   6   4     2.305606402612   123.01139104    26.98624394
 N     16   6   4     2.511688581977   111.47716576   204.95022699
 C     18  16   6     2.739676171173   123.20836377     3.42825188
 C     18  16   6     2.734222484773   119.92183002   181.13564898
 H     20  18  16     2.060046776395   109.80146911   239.79827918
 H     20  18  16     2.059144609236   110.02406935   119.34894962
 H     20  18  16     2.055957603222   109.04593600   359.42763296
 H     19  18  16     2.053440156793   110.22466022   318.87445365
 H     19  18  16     2.052522407168   108.11346417   199.28811788
 H     19  18  16     2.062627397366   110.59801808    79.90220126
 H      3   2   1     2.037329413123   120.49768245   184.76881194
 H      1   2   3     2.037437777710   119.88139623   175.08528335
 H      2   1   3     2.037586197263   118.74661168   183.00490332
 H      8   7   3     2.037779819529   117.71831096   356.21195354
 H      9   8   7     2.036778496866   121.39413948   186.40390480
 H     13  12  10     2.040446941907   115.72082206   177.63605230
 H     14  13  12     2.035329331166   119.86655655   177.73771882
 H     15  14  13     2.039061410325   120.90722166   188.69315570
 P     12  10   5     3.341823627365   120.90723097    36.77834915
 O     35  12  10     2.766339457217   114.83258177   358.35548244
 O     35  12  10     2.960552788117    99.46197967   224.53614028
 O     35  12  10     3.001863293688   100.53766321   119.75735481
 C     37  35  12     2.720540539844   122.92006333   210.95425569
 C     38  35  12     2.704492599178   120.67935664   261.11922501
 C     39  37  35     2.862482968237   111.97080640   303.10288430
 H     39  37  35     2.061579250513   104.06809547   182.79277386
 H     39  37  35     2.063922593387   108.82180164    65.45215162
 H     41  39  37     2.051732377431   109.97473345   185.37345491
 H     41  39  37     2.058815948587   110.17779107    65.04655079
 H     41  39  37     2.057920313517   110.59000241   305.98775478
 C     40  38  35     2.866139779735   111.59549084    78.40232240
 H     40  38  35     2.067581162583   108.81923941   316.33764027
 H     40  38  35     2.062302514184   104.79181717   199.13948695
 H     47  40  38     2.053822331239   110.42461359    53.98539367
 H     47  40  38     2.057336689284   109.96462759   292.83715547
 H     47  40  38     2.052041651618   109.19596211   173.79059271

---------------------
BASIS SET INFORMATION
---------------------
There are 5 groups of distinct atoms

 Group   1 Type C   : 11s5p1d contracted to 4s3p1d pattern {6311/311/1}
 Group   2 Type O   : 11s5p1d contracted to 4s3p1d pattern {6311/311/1}
 Group   3 Type N   : 11s5p1d contracted to 4s3p1d pattern {6311/311/1}
 Group   4 Type H   : 5s contracted to 3s pattern {311}
 Group   5 Type P   : 13s9p1d contracted to 6s5p1d pattern {631111/42111/1}

Atom   0C    basis set group =>   1
Atom   1C    basis set group =>   1
Atom   2C    basis set group =>   1
Atom   3C    basis set group =>   1
Atom   4C    basis set group =>   1
Atom   5O    basis set group =>   2
Atom   6C    basis set group =>   1
Atom   7C    basis set group =>   1
Atom   8C    basis set group =>   1
Atom   9C    basis set group =>   1
Atom  10C    basis set group =>   1
Atom  11N    basis set group =>   3
Atom  12C    basis set group =>   1
Atom  13C    basis set group =>   1
Atom  14C    basis set group =>   1
Atom  15C    basis set group =>   1
Atom  16O    basis set group =>   2
Atom  17N    basis set group =>   3
Atom  18C    basis set group =>   1
Atom  19C    basis set group =>   1
Atom  20H    basis set group =>   4
Atom  21H    basis set group =>   4
Atom  22H    basis set group =>   4
Atom  23H    basis set group =>   4
Atom  24H    basis set group =>   4
Atom  25H    basis set group =>   4
Atom  26H    basis set group =>   4
Atom  27H    basis set group =>   4
Atom  28H    basis set group =>   4
Atom  29H    basis set group =>   4
Atom  30H    basis set group =>   4
Atom  31H    basis set group =>   4
Atom  32H    basis set group =>   4
Atom  33H    basis set group =>   4
Atom  34P    basis set group =>   5
Atom  35O    basis set group =>   2
Atom  36O    basis set group =>   2
Atom  37O    basis set group =>   2
Atom  38C    basis set group =>   1
Atom  39C    basis set group =>   1
Atom  40C    basis set group =>   1
Atom  41H    basis set group =>   4
Atom  42H    basis set group =>   4
Atom  43H    basis set group =>   4
Atom  44H    basis set group =>   4
Atom  45H    basis set group =>   4
Atom  46C    basis set group =>   1
Atom  47H    basis set group =>   4
Atom  48H    basis set group =>   4
Atom  49H    basis set group =>   4
Atom  50H    basis set group =>   4
Atom  51H    basis set group =>   4
---------------------------------
AUXILIARY/J BASIS SET INFORMATION
---------------------------------
There are 5 groups of distinct atoms

 Group   1 Type C   : 12s5p4d2f1g contracted to 6s4p3d1f1g pattern {711111/2111/211/2/1}
 Group   2 Type O   : 12s5p4d2f1g contracted to 6s4p3d1f1g pattern {711111/2111/211/2/1}
 Group   3 Type N   : 12s5p4d2f1g contracted to 6s4p3d1f1g pattern {711111/2111/211/2/1}
 Group   4 Type H   : 5s2p1d contracted to 3s1p1d pattern {311/2/1}
 Group   5 Type P   : 14s5p5d2f1g contracted to 8s4p3d1f1g pattern {71111111/2111/311/2/1}

Atom   0C    basis set group =>   1
Atom   1C    basis set group =>   1
Atom   2C    basis set group =>   1
Atom   3C    basis set group =>   1
Atom   4C    basis set group =>   1
Atom   5O    basis set group =>   2
Atom   6C    basis set group =>   1
Atom   7C    basis set group =>   1
Atom   8C    basis set group =>   1
Atom   9C    basis set group =>   1
Atom  10C    basis set group =>   1
Atom  11N    basis set group =>   3
Atom  12C    basis set group =>   1
Atom  13C    basis set group =>   1
Atom  14C    basis set group =>   1
Atom  15C    basis set group =>   1
Atom  16O    basis set group =>   2
Atom  17N    basis set group =>   3
Atom  18C    basis set group =>   1
Atom  19C    basis set group =>   1
Atom  20H    basis set group =>   4
Atom  21H    basis set group =>   4
Atom  22H    basis set group =>   4
Atom  23H    basis set group =>   4
Atom  24H    basis set group =>   4
Atom  25H    basis set group =>   4
Atom  26H    basis set group =>   4
Atom  27H    basis set group =>   4
Atom  28H    basis set group =>   4
Atom  29H    basis set group =>   4
Atom  30H    basis set group =>   4
Atom  31H    basis set group =>   4
Atom  32H    basis set group =>   4
Atom  33H    basis set group =>   4
Atom  34P    basis set group =>   5
Atom  35O    basis set group =>   2
Atom  36O    basis set group =>   2
Atom  37O    basis set group =>   2
Atom  38C    basis set group =>   1
Atom  39C    basis set group =>   1
Atom  40C    basis set group =>   1
Atom  41H    basis set group =>   4
Atom  42H    basis set group =>   4
Atom  43H    basis set group =>   4
Atom  44H    basis set group =>   4
Atom  45H    basis set group =>   4
Atom  46C    basis set group =>   1
Atom  47H    basis set group =>   4
Atom  48H    basis set group =>   4
Atom  49H    basis set group =>   4
Atom  50H    basis set group =>   4
Atom  51H    basis set group =>   4
------------------------------------------------------------------------------
                             ORCA STARTUP CALCULATIONS
                           -- RI-GTO INTEGRALS CHOSEN --
------------------------------------------------------------------------------
------------------------------------------------------------------------------
                   ___                                                        
                  /   \      - P O W E R E D   B Y -                         
                 /     \                                                     
                 |  |  |   _    _      __       _____    __    __             
                 |  |  |  | |  | |    /  \     |  _  \  |  |  /  |          
                  \  \/   | |  | |   /    \    | | | |  |  | /  /          
                 / \  \   | |__| |  /  /\  \   | |_| |  |  |/  /          
                |  |  |   |  __  | /  /__\  \  |    /   |      \           
                |  |  |   | |  | | |   __   |  |    \   |  |\   \          
                \     /   | |  | | |  |  |  |  | |\  \  |  | \   \       
                 \___/    |_|  |_| |__|  |__|  |_| \__\ |__|  \__/        
                                                                              
                      - O R C A' S   B I G   F R I E N D -                    
                                      &                                       
                       - I N T E G R A L  F E E D E R -                       
                                                                              
 v1 FN, 2020, v2 2021, v3 2022-2024                                           
------------------------------------------------------------------------------


----------------------
SHARK INTEGRAL PACKAGE
----------------------

Number of atoms                             ...     52
Number of basis functions                   ...    584
Number of shells                            ...    300
Maximum angular momentum                    ...      2
Integral batch strategy                     ... SHARK/LIBINT Hybrid
RI-J (if used) integral strategy            ... SPLIT-RIJ (Revised 2003 algorithm where possible)
Printlevel                                  ...      1
Contraction scheme used                     ... SEGMENTED contraction
Prescreening option                         ... SCHWARTZ
   Thresh                                   ... 2.500e-11
   Tcut                                     ... 2.500e-12
   Tpresel                                  ... 2.500e-12 
Coulomb Range Separation                    ... NOT USED
Exchange Range Separation                   ... NOT USED
Multipole approximations                    ... NOT USED
Finite Nucleus Model                        ... NOT USED
CABS basis                                  ... NOT available
Auxiliary Coulomb fitting basis             ... AVAILABLE
   # of basis functions in Aux-J            ...   1638
   # of shells in Aux-J                     ...    542
   Maximum angular momentum in Aux-J        ...      4
Auxiliary J/K fitting basis                 ... NOT available
Auxiliary Correlation fitting basis         ... NOT available
Auxiliary 'external' fitting basis          ... NOT available

Checking pre-screening integrals            ... done (  0.0 sec) Dimension = 300
Check shell pair data                       ... done (  0.0 sec)
Shell pair information
Shell pair cut-off parameter TPreSel        ...   2.5e-12
Total number of shell pairs                 ...     45150
Shell pairs after pre-screening             ...     30900
Total number of primitive shell pairs       ...    182167
Primitive shell pairs kept                  ...     72322
          la=0 lb=0:  11167 shell pairs
          la=1 lb=0:  11422 shell pairs
          la=1 lb=1:   2958 shell pairs
          la=2 lb=0:   3297 shell pairs
          la=2 lb=1:   1776 shell pairs
          la=2 lb=2:    280 shell pairs

Calculating one electron integrals          ... done (  0.1 sec)
Calculating RI/J V-Matrix + Cholesky decomp.... done (  0.8 sec)
Calculating Nuclear repulsion               ... done (  0.0 sec) ENN=   3224.304321461012 Eh

Diagonalization of the overlap matrix:
Smallest eigenvalue                        ... 8.465e-05
Time for diagonalization                   ...    0.025 sec
Threshold for overlap eigenvalues          ... 1.000e-07
Number of eigenvalues below threshold      ... 0
Time for construction of square roots      ...    0.096 sec
Total time needed                          ...    0.167 sec

-------------------
DFT GRID GENERATION
-------------------

General Integration Accuracy     IntAcc      ... 4.388
Radial Grid Type                 RadialGrid  ... OptM3 with GC (2021)
Angular Grid (max. ang.)         AngularGrid ... 4 (Lebedev-302)
Angular grid pruning method      GridPruning ... 4 (adaptive)
Weight generation scheme         WeightScheme... mBecke (2022)
Basis function cutoff            BFCut       ... 1.0000e-11
Integration weight cutoff        WCut        ... 1.0000e-14
Partially contracted basis set               ... off
Rotationally invariant grid construction     ... off
Angular grids for H and He will be reduced by one unit

Total number of grid points                  ...   243759
Total number of batches                      ...     3833
Average number of points per batch           ...       63
Average number of grid points per atom       ...     4688

--------------------
COSX GRID GENERATION
--------------------

GRIDX 1
-------
General Integration Accuracy     IntAcc      ... 3.816
Radial Grid Type                 RadialGrid  ... OptM3 with GC (2021)
Angular Grid (max. ang.)         AngularGrid ... 1 (Lebedev-50)
Angular grid pruning method      GridPruning ... 4 (adaptive)
Weight generation scheme         WeightScheme... mBecke (2022)
Basis function cutoff            BFCut       ... 1.0000e-11
Integration weight cutoff        WCut        ... 1.0000e-14
Partially contracted basis set               ... on
Rotationally invariant grid construction     ... off
Angular grids for H and He will be reduced by one unit

Total number of grid points                  ...    31886
Total number of batches                      ...      278
Average number of points per batch           ...      114
Average number of grid points per atom       ...      613
UseSFitting                                  ... on

GRIDX 2
-------
General Integration Accuracy     IntAcc      ... 4.020
Radial Grid Type                 RadialGrid  ... OptM3 with GC (2021)
Angular Grid (max. ang.)         AngularGrid ... 2 (Lebedev-110)
Angular grid pruning method      GridPruning ... 4 (adaptive)
Weight generation scheme         WeightScheme... mBecke (2022)
Basis function cutoff            BFCut       ... 1.0000e-11
Integration weight cutoff        WCut        ... 1.0000e-14
Partially contracted basis set               ... on
Rotationally invariant grid construction     ... off
Angular grids for H and He will be reduced by one unit

Total number of grid points                  ...    66148
Total number of batches                      ...      542
Average number of points per batch           ...      122
Average number of grid points per atom       ...     1272
UseSFitting                                  ... on

GRIDX 3
-------
General Integration Accuracy     IntAcc      ... 4.338
Radial Grid Type                 RadialGrid  ... OptM3 with GC (2021)
Angular Grid (max. ang.)         AngularGrid ... 3 (Lebedev-194)
Angular grid pruning method      GridPruning ... 4 (adaptive)
Weight generation scheme         WeightScheme... mBecke (2022)
Basis function cutoff            BFCut       ... 1.0000e-11
Integration weight cutoff        WCut        ... 1.0000e-14
Partially contracted basis set               ... on
Rotationally invariant grid construction     ... off
Angular grids for H and He will be reduced by one unit

Total number of grid points                  ...   144435
Total number of batches                      ...     1157
Average number of points per batch           ...      124
Average number of grid points per atom       ...     2778
UseSFitting                                  ... on
Initializing property integral containers    ... done (  0.0 sec)

SHARK setup successfully completed in   8.5 seconds

Maximum memory used throughout the entire STARTUP-calculation: 131.0 MB
-------------------------------------------------------------------------------
                                 ORCA GUESS
                   Start orbitals & Density for SCF / CASSCF
-------------------------------------------------------------------------------

------------
SCF SETTINGS
------------
Hamiltonian:
 Density Functional     Method          .... DFT(GTOs)
 Exchange Functional    Exchange        .... B88
   X-Alpha parameter    XAlpha          ....  0.666667
   Becke's b parameter  XBeta           ....  0.004200
 Correlation Functional Correlation     .... LYP
 LDA part of GGA corr.  LDAOpt          .... VWN-3
 Gradients option       PostSCFGGA      .... off
 Hybrid DFT is turned on
   Fraction HF Exchange ScalHFX         ....  0.200000
   Scaling of DF-GGA-X  ScalDFX         ....  0.720000
   Scaling of DF-GGA-C  ScalDFC         ....  0.810000
   Scaling of DF-LDA-C  ScalLDAC        ....  1.000000
   Perturbative correction              ....  0.000000
   NL short-range parameter             ....  4.800000
 RI-approximation to the Coulomb term is turned on
   Number of AuxJ basis functions       .... 1638
   RIJ-COSX (HFX calculated with COS-X)).... on


General Settings:
 Integral files         IntName         .... 3
 Hartree-Fock type      HFTyp           .... RHF
 Total Charge           Charge          ....    1
 Multiplicity           Mult            ....    1
 Number of Electrons    NEL             ....  212
 Basis Dimension        Dim             ....  584
 Nuclear Repulsion      ENuc            ....   3224.3043214610 Eh

Convergence Acceleration:
 AO-DIIS                CNVDIIS         .... on
   Start iteration      DIISMaxIt       ....    12
   Startup error        DIISStart       ....  0.200000
   # of expansion vecs  DIISMaxEq       ....     5
   Bias factor          DIISBfac        ....   1.050
   Max. coefficient     DIISMaxC        ....  10.000
 MO-DIIS                CNVKDIIS        .... off
 Trust-Rad. Augm. Hess. CNVTRAH         .... auto
   Auto Start mean grad. ratio tolernc. ....  1.125000
   Auto Start start iteration           ....    50
   Auto Start num. interpolation iter.  ....    10
   Max. Number of Micro iterations      ....    24
   Max. Number of Macro iterations      .... Maxiter - #DIIS iter
   Number of Davidson start vectors     ....     2
   Converg. threshold    (grad. norm)   ....   1.000e-05
   Grad. Scal. Fac. for Micro threshold ....   0.100
   Minimum threshold for Micro iter.    ....   1.000e-02
   NR start threshold (gradient norm)   ....   1.000e-04
   Initial trust radius                 ....   0.400
   Minimum AH scaling param. (alpha)    ....   1.000
   Maximum AH scaling param. (alpha)    .... 1000.000
   Quad. conv. algorithm                .... NR
   White noise on init. David. guess    .... on
   Maximum white noise                  ....   0.010
   Pseudo random numbers                .... off
   Inactive MOs                         .... canonical
   Orbital update algorithm             .... Taylor
   Preconditioner                       .... Diag
   Full preconditioner red. dimension   ....   250
 SOSCF                  CNVSOSCF        .... on
   Start iteration      SOSCFMaxIt      ....   150
   Startup grad/error   SOSCFStart      ....  0.003300
   Hessian update       SOSCFHessUp     .... L-BFGS
 Level Shifting         CNVShift        .... on
   Level shift para.    LevelShift      ....    0.2500
   Turn off err/grad.   ShiftErr        ....    0.0010
 Zerner damping         CNVZerner       .... off
 Static damping         CNVDamp         .... on
   Fraction old density DampFac         ....    0.7000
   Max. Damping (<1)    DampMax         ....    0.9800
   Min. Damping (>=0)   DampMin         ....    0.0000
   Turn off err/grad.   DampErr         ....    0.1000

SCF Procedure:
 Maximum # iterations   MaxIter         ....   125
 SCF integral mode      SCFMode         .... Direct
   Integral package                     .... SHARK and LIBINT hybrid scheme
 Reset frequency        DirectResetFreq ....    20
 Integral Threshold     Thresh          ....  2.500e-11 Eh
 Primitive CutOff       TCut            ....  2.500e-12 Eh

Convergence Tolerance:
 Convergence Check Mode ConvCheckMode   .... Total+1el-Energy
 Convergence forced     ConvForced      .... 0
 Energy Change          TolE            ....  1.000e-08 Eh
 1-El. energy change                    ....  1.000e-05 Eh
 Orbital Gradient       TolG            ....  1.000e-05
 Orbital Rotation angle TolX            ....  1.000e-05
 DIIS Error             TolErr          ....  5.000e-07

------------------------------
INITIAL GUESS: MODEL POTENTIAL
------------------------------
Loading Hartree-Fock densities                     ... done
Calculating cut-offs                               ... done
Initializing the effective Hamiltonian             ... done
Setting up the integral package (SHARK)            ... done
Starting the Coulomb interaction                   ... done (   1.4 sec)
Making the grid                                    ... done (   0.7 sec)
Mapping shells                                     ... done
Starting the XC term evaluation                    ... done (   0.6 sec)
  promolecular density results
     # of electrons  =    212.996472410
     EX              =   -187.063788848
     EC              =     -7.428586136
     EX+EC           =   -194.492374985
Transforming the Hamiltonian                       ... done (   0.0 sec)
Diagonalizing the Hamiltonian                      ... done (   0.0 sec)
Back transforming the eigenvectors                 ... done (   0.1 sec)
Now organizing SCF variables                       ... done
                      ------------------
                      INITIAL GUESS DONE (   3.1 sec)
                      ------------------
             **** ENERGY FILE WAS UPDATED (3.en.tmp) ****
Finished Guess after   3.7 sec
Maximum memory used throughout the entire GUESS-calculation: 82.2 MB

-------------------------------------------------------------------------------------------
                                      ORCA LEAN-SCF
                              memory conserving SCF solver
-------------------------------------------------------------------------------------------

--------------------
CPCM SOLVATION MODEL
--------------------
CPCM parameters:
  Epsilon                                         ...      80.1510
  Refrac                                          ...       1.3328
  Rsolv                                           ...       1.3000
  Surface type                                    ... GAUSSIAN VDW
  Discretization scheme                           ... Constant charge density
    Threshold for H atoms                         ...       5.0000 (charges/Ang^2)
    Threshold for non-H atoms                     ...       5.0000 (charges/Ang^2)
  Epsilon function type                           ...         CPCM
Solvent:                                          ... WATER
Radii:
  Scheme                                          ... Element-dependent radii
  Radius for C  used is    3.8550 Bohr (=   2.0400 Ang.)
  Radius for O  used is    3.4469 Bohr (=   1.8240 Ang.)
  Radius for N  used is    3.5149 Bohr (=   1.8600 Ang.)
  Radius for H  used is    2.4944 Bohr (=   1.3200 Ang.)
  Radius for P  used is    4.0818 Bohr (=   2.1600 Ang.)
Calculating surface                               ...        done! (  0.0s)
Cavity surface points                             ...         4188
Cavity Volume                                     ...    3026.6061
Cavity Surface-area                               ...    1436.7519
Calculating surface distance matrix               ...        done! (  0.1s)
Performing Cholesky decomposition & store         ...        done! (  2.4s)
Overall time for CPCM initialization              ...                 2.5s

----------------------------------------D-I-I-S--------------------------------------------
Iteration    Energy (Eh)           Delta-E    RMSDP     MaxDP     DIISErr   Damp  Time(sec)
-------------------------------------------------------------------------------------------
               ***  Starting incremental Fock matrix formation  ***
    1    -1602.9687580380314103     0.00e+00  1.73e-03  1.19e-01  4.10e-01  0.700  35.5
    2    -1603.3629303891657401    -3.94e-01  1.06e-03  5.35e-02  1.38e-01  0.700  19.6
                               ***Turning on AO-DIIS***
    3    -1603.5071726325986674    -1.44e-01  3.93e-04  1.46e-02  4.67e-02  0.700  18.4
    4    -1603.5982344511148767    -9.11e-02  6.75e-04  2.66e-02  2.18e-02  0.000  17.3
    5    -1603.8006511275143566    -2.02e-01  1.48e-04  6.53e-03  6.62e-03  0.000  17.6
                              *** Initializing SOSCF ***
---------------------------------------S-O-S-C-F--------------------------------------
Iteration    Energy (Eh)           Delta-E    RMSDP     MaxDP     MaxGrad    Time(sec)
--------------------------------------------------------------------------------------
    6    -1603.8016443448041173    -9.93e-04  4.50e-05  1.32e-03  2.04e-03    16.2
               *** Restarting incremental Fock matrix formation ***
    7    -1603.8016657556727296    -2.14e-05  3.56e-05  1.40e-03  4.01e-04    37.8
    8    -1603.8016459981245134     1.98e-05  2.03e-05  8.86e-04  8.60e-04    23.0
    9    -1603.8016814405254991    -3.54e-05  2.70e-06  1.05e-04  2.60e-05    20.6
   10    -1603.8016813531421576     8.74e-08  1.32e-06  7.50e-05  3.67e-05    16.6
   11    -1603.8016815321389004    -1.79e-07  9.00e-07  3.51e-05  1.05e-05    14.4
   12    -1603.8016815014379972     3.07e-08  4.55e-07  1.98e-05  9.24e-06    14.2
   13    -1603.8016815136279547    -1.22e-08  1.58e-07  4.90e-06  1.16e-06    12.5
                  *** Gradient check signals convergence ***

               *****************************************************
               *                     SUCCESS                       *
               *           SCF CONVERGED AFTER  13 CYCLES          *
               *****************************************************

Recomputing exchange energy using gridx3       ... done (   54.870 sec)
Old exchange energy                            :    -37.912482615 Eh
New exchange energy                            :    -37.912478924 Eh
Exchange energy change after final integration :      0.000003691 Eh
Total energy after final integration           :  -1603.801677822 Eh
             **** ENERGY FILE WAS UPDATED (3.en.tmp) ****

----------------
TOTAL SCF ENERGY
----------------

Total Energy       :      -1603.80167782234548 Eh          -43641.66235 eV

Components:
Nuclear Repulsion  :       3224.30432146101157 Eh           87737.78109 eV
Electronic Energy  :      -4828.02034076384643 Eh         -131377.11256 eV
One Electron Energy:      -8581.47668286771477 Eh         -233513.85216 eV
Two Electron Energy:       3753.45634210386834 Eh          102136.73960 eV
CPCM Dielectric    :         -0.08566221079323 Eh              -2.33099 eV

Virial components:
Potential Energy   :      -3203.23454113603793 Eh          -87164.44322 eV
Kinetic Energy     :       1599.43286331369245 Eh           43522.78087 eV
Virial Ratio       :          2.00273147726851

DFT components:
N(Alpha)           :      106.000110951687 electrons
N(Beta)            :      106.000110951687 electrons
N(Total)           :      212.000221903373 electrons
E(X)               :     -150.674088851515 Eh       
E(C)               :       -9.482360916324 Eh       
E(XC)              :     -160.156449767839 Eh       

CPCM Solvation Model Properties:
Surface-charge          :         -1.02912031700273
Corrected charge        :         -1.00000000000000
Outlying charge corr.   :          0.00004288614528 Eh               0.00117 eV
Free-energy (cav+disp)  :  This term is not implemented in the current solvation scheme

---------------
SCF CONVERGENCE
---------------

  Last Energy change         ...    1.2190e-08  Tolerance :   1.0000e-08
  Last MAX-Density change    ...    4.9024e-06  Tolerance :   1.0000e-07
  Last RMS-Density change    ...    1.5798e-07  Tolerance :   5.0000e-09
  Last DIIS Error            ...    2.0380e-03  Tolerance :   5.0000e-07
  Last Orbital Gradient      ...    1.1649e-06  Tolerance :   1.0000e-05
  Last Orbital Rotation      ...    5.7421e-06  Tolerance :   1.0000e-05


----------------
ORBITAL ENERGIES
----------------

  NO   OCC          E(Eh)            E(eV) 
   0   2.0000     -77.225581     -2101.4149 
   1   2.0000     -19.196047      -522.3510 
   2   2.0000     -19.181911      -521.9663 
   3   2.0000     -19.174467      -521.7638 
   4   2.0000     -19.118864      -520.2507 
   5   2.0000     -19.101918      -519.7896 
   6   2.0000     -14.432007      -392.7149 
   7   2.0000     -14.355597      -390.6356 
   8   2.0000     -10.332108      -281.1509 
   9   2.0000     -10.278349      -279.6881 
  10   2.0000     -10.271810      -279.5102 
  11   2.0000     -10.271186      -279.4932 
  12   2.0000     -10.242047      -278.7003 
  13   2.0000     -10.236863      -278.5592 
  14   2.0000     -10.234458      -278.4938 
  15   2.0000     -10.231135      -278.4033 
  16   2.0000     -10.220256      -278.1073 
  17   2.0000     -10.218539      -278.0606 
  18   2.0000     -10.215350      -277.9738 
  19   2.0000     -10.201321      -277.5921 
  20   2.0000     -10.200607      -277.5726 
  21   2.0000     -10.197674      -277.4928 
  22   2.0000     -10.197496      -277.4880 
  23   2.0000     -10.195707      -277.4393 
  24   2.0000     -10.189375      -277.2670 
  25   2.0000     -10.188132      -277.2332 
  26   2.0000     -10.165851      -276.6269 
  27   2.0000     -10.165776      -276.6248 
  28   2.0000      -6.707867      -182.5303 
  29   2.0000      -4.870074      -132.5214 
  30   2.0000      -4.869872      -132.5159 
  31   2.0000      -4.868330      -132.4740 
  32   2.0000      -1.145784       -31.1784 
  33   2.0000      -1.129764       -30.7424 
  34   2.0000      -1.074813       -29.2471 
  35   2.0000      -1.051344       -28.6085 
  36   2.0000      -1.040723       -28.3195 
  37   2.0000      -1.014640       -27.6098 
  38   2.0000      -0.962467       -26.1901 
  39   2.0000      -0.913483       -24.8571 
  40   2.0000      -0.877522       -23.8786 
  41   2.0000      -0.849425       -23.1140 
  42   2.0000      -0.820883       -22.3374 
  43   2.0000      -0.791343       -21.5335 
  44   2.0000      -0.783630       -21.3237 
  45   2.0000      -0.774917       -21.0866 
  46   2.0000      -0.770546       -20.9676 
  47   2.0000      -0.733777       -19.9671 
  48   2.0000      -0.724853       -19.7242 
  49   2.0000      -0.710468       -19.3328 
  50   2.0000      -0.696466       -18.9518 
  51   2.0000      -0.684805       -18.6345 
  52   2.0000      -0.668379       -18.1875 
  53   2.0000      -0.657785       -17.8993 
  54   2.0000      -0.650154       -17.6916 
  55   2.0000      -0.613250       -16.6874 
  56   2.0000      -0.603892       -16.4327 
  57   2.0000      -0.569200       -15.4887 
  58   2.0000      -0.563225       -15.3261 
  59   2.0000      -0.559142       -15.2150 
  60   2.0000      -0.553650       -15.0656 
  61   2.0000      -0.544489       -14.8163 
  62   2.0000      -0.540982       -14.7209 
  63   2.0000      -0.520662       -14.1679 
  64   2.0000      -0.516599       -14.0574 
  65   2.0000      -0.508758       -13.8440 
  66   2.0000      -0.500610       -13.6223 
  67   2.0000      -0.499266       -13.5857 
  68   2.0000      -0.492715       -13.4075 
  69   2.0000      -0.488681       -13.2977 
  70   2.0000      -0.482577       -13.1316 
  71   2.0000      -0.477166       -12.9844 
  72   2.0000      -0.467969       -12.7341 
  73   2.0000      -0.462119       -12.5749 
  74   2.0000      -0.457025       -12.4363 
[...]
133:   3041.91   0.018908   95.55  0.001940  ( 0.013111  0.017448 -0.038254)
134:   3042.31   0.002772   14.01  0.000284  ( 0.015335 -0.003565  0.006035)
135:   3044.31   0.001991   10.06  0.000204  ( 0.012444 -0.005444 -0.004426)
136:   3094.66   0.016192   81.83  0.001633  ( 0.010843  0.034961  0.017117)
137:   3097.04   0.001450    7.33  0.000146  (-0.008169  0.008519  0.002613)
138:   3097.33   0.001356    6.85  0.000137  ( 0.002636  0.009539  0.006221)
139:   3101.18   0.000983    4.97  0.000099  ( 0.008920  0.004143 -0.001465)
140:   3108.83   0.009853   49.80  0.000989  ( 0.000872  0.013837 -0.028229)
141:   3109.84   0.009871   49.89  0.000991  ( 0.006284 -0.028066 -0.012781)
142:   3112.83   0.006384   32.26  0.000640  (-0.015797 -0.001623  0.019693)
143:   3120.68   0.006057   30.61  0.000606  (-0.011773 -0.021537  0.001806)
144:   3157.67   0.005860   29.61  0.000579  (-0.007231 -0.021006  0.009252)
145:   3166.00   0.005747   29.04  0.000566  (-0.008218 -0.010696 -0.019608)
146:   3179.36   0.001336    6.75  0.000131  (-0.010154  0.001404  0.005106)
147:   3186.84   0.000560    2.83  0.000055  (-0.007293 -0.001151 -0.000576)
148:   3191.28   0.000339    1.71  0.000033  ( 0.004034 -0.000814  0.004029)
149:   3191.58   0.002146   10.84  0.000210  ( 0.008846 -0.006750  0.009272)
150:   3201.18   0.004928   24.90  0.000480  (-0.012854 -0.013677  0.011318)
151:   3202.54   0.000534    2.70  0.000052  (-0.004979 -0.003527  0.003843)
152:   3206.44   0.002999   15.16  0.000292  (-0.006705  0.010895 -0.011324)
153:   3232.94   0.000240    1.21  0.000023  ( 0.000489 -0.004107  0.002455)
154:   3245.29   0.000018    0.09  0.000002  (-0.000657  0.000451  0.001056)
155:   3251.30   0.001596    8.07  0.000153  (-0.000905 -0.011087  0.005426)

* The epsilon (eps) is given for a Dirac delta lineshape.
** The dipole moment derivative (T) already includes vibrational overlap.

The first frequency considered to be a vibration is 6
The total number of vibrations considered is 150


--------------------------
THERMOCHEMISTRY AT 298.15K
--------------------------

Temperature         ...   298.15 K
Pressure            ...     1.00 atm
Total Mass          ...   403.39 AMU
Quasi RRHO          ...     True
Cut-Off Frequency   ...     1.00 cm^-1

Throughout the following assumptions are being made:
  (1) The electronic state is orbitally nondegenerate
  (2) There are no thermally accessible electronically excited states
  (3) Hindered rotations indicated by low frequency modes are not
      treated as such but are treated as vibrations and this may
      cause some error
  (4) All equations used are the standard statistical mechanics
      equations for an ideal gas
  (5) All vibrations are strictly harmonic

freq.      28.19  E(vib)   ...       0.55 
freq.      29.00  E(vib)   ...       0.55 
freq.      33.81  E(vib)   ...       0.55 
freq.      34.85  E(vib)   ...       0.54 
freq.      42.51  E(vib)   ...       0.53 
freq.      48.36  E(vib)   ...       0.53 
freq.      55.13  E(vib)   ...       0.52 
freq.      58.54  E(vib)   ...       0.51 
freq.      75.05  E(vib)   ...       0.49 
freq.      78.41  E(vib)   ...       0.49 
freq.      85.82  E(vib)   ...       0.48 
freq.     100.02  E(vib)   ...       0.46 
freq.     114.84  E(vib)   ...       0.44 
freq.     116.83  E(vib)   ...       0.44 
freq.     136.35  E(vib)   ...       0.42 
freq.     154.04  E(vib)   ...       0.40 
freq.     174.51  E(vib)   ...       0.38 
freq.     186.66  E(vib)   ...       0.37 
freq.     206.80  E(vib)   ...       0.35 
freq.     213.48  E(vib)   ...       0.34 
freq.     227.64  E(vib)   ...       0.33 
freq.     248.22  E(vib)   ...       0.31 
freq.     248.86  E(vib)   ...       0.31 
freq.     255.45  E(vib)   ...       0.30 
freq.     266.81  E(vib)   ...       0.29 
freq.     275.21  E(vib)   ...       0.28 
freq.     303.77  E(vib)   ...       0.26 
freq.     326.13  E(vib)   ...       0.24 
freq.     353.80  E(vib)   ...       0.22 
freq.     375.01  E(vib)   ...       0.21 
freq.     395.33  E(vib)   ...       0.20 
freq.     397.58  E(vib)   ...       0.20 
freq.     423.74  E(vib)   ...       0.18 
freq.     431.46  E(vib)   ...       0.18 
freq.     440.14  E(vib)   ...       0.17 
freq.     474.32  E(vib)   ...       0.15 
freq.     479.90  E(vib)   ...       0.15 
freq.     485.75  E(vib)   ...       0.15 
freq.     506.20  E(vib)   ...       0.14 
freq.     519.07  E(vib)   ...       0.13 
freq.     528.89  E(vib)   ...       0.13 
freq.     542.50  E(vib)   ...       0.12 
freq.     560.83  E(vib)   ...       0.11 
freq.     585.19  E(vib)   ...       0.11 
freq.     624.70  E(vib)   ...       0.09 
freq.     628.11  E(vib)   ...       0.09 
freq.     661.81  E(vib)   ...       0.08 
freq.     703.83  E(vib)   ...       0.07 
freq.     715.65  E(vib)   ...       0.07 
freq.     722.15  E(vib)   ...       0.07 
freq.     743.57  E(vib)   ...       0.06 
freq.     759.40  E(vib)   ...       0.06 
freq.     774.46  E(vib)   ...       0.05 
freq.     779.70  E(vib)   ...       0.05 
freq.     782.92  E(vib)   ...       0.05 
freq.     812.05  E(vib)   ...       0.05 
freq.     814.46  E(vib)   ...       0.05 
freq.     816.71  E(vib)   ...       0.05 
freq.     823.98  E(vib)   ...       0.05 
freq.     839.57  E(vib)   ...       0.04 
freq.     849.56  E(vib)   ...       0.04 
freq.     902.18  E(vib)   ...       0.03 
freq.     907.44  E(vib)   ...       0.03 
freq.     940.21  E(vib)   ...       0.03 
freq.     959.81  E(vib)   ...       0.03 
freq.     961.08  E(vib)   ...       0.03 
freq.     981.06  E(vib)   ...       0.02 
freq.     987.25  E(vib)   ...       0.02 
freq.     996.04  E(vib)   ...       0.02 
freq.    1003.51  E(vib)   ...       0.02 
freq.    1014.88  E(vib)   ...       0.02 
freq.    1020.95  E(vib)   ...       0.02 
freq.    1033.12  E(vib)   ...       0.02 
freq.    1062.29  E(vib)   ...       0.02 
freq.    1082.26  E(vib)   ...       0.02 
freq.    1112.52  E(vib)   ...       0.01 
freq.    1113.56  E(vib)   ...       0.01 
freq.    1114.21  E(vib)   ...       0.01 
freq.    1131.32  E(vib)   ...       0.01 
freq.    1132.41  E(vib)   ...       0.01 
freq.    1138.28  E(vib)   ...       0.01 
freq.    1153.60  E(vib)   ...       0.01 
freq.    1180.21  E(vib)   ...       0.01 
freq.    1181.41  E(vib)   ...       0.01 
freq.    1183.43  E(vib)   ...       0.01 
freq.    1187.07  E(vib)   ...       0.01 
freq.    1200.73  E(vib)   ...       0.01 
freq.    1214.86  E(vib)   ...       0.01 
freq.    1238.49  E(vib)   ...       0.01 
freq.    1258.99  E(vib)   ...       0.01 
freq.    1274.15  E(vib)   ...       0.01 
freq.    1284.39  E(vib)   ...       0.01 
freq.    1288.98  E(vib)   ...       0.01 
freq.    1300.21  E(vib)   ...       0.01 
freq.    1320.35  E(vib)   ...       0.01 
freq.    1323.93  E(vib)   ...       0.01 
freq.    1347.15  E(vib)   ...       0.01 
freq.    1358.85  E(vib)   ...       0.01 
freq.    1407.14  E(vib)   ...       0.00 
freq.    1410.19  E(vib)   ...       0.00 
freq.    1414.09  E(vib)   ...       0.00 
freq.    1420.09  E(vib)   ...       0.00 
freq.    1422.17  E(vib)   ...       0.00 
freq.    1423.12  E(vib)   ...       0.00 
freq.    1449.07  E(vib)   ...       0.00 
freq.    1455.31  E(vib)   ...       0.00 
freq.    1458.93  E(vib)   ...       0.00 
freq.    1472.16  E(vib)   ...       0.00 
freq.    1477.81  E(vib)   ...       0.00 
freq.    1484.83  E(vib)   ...       0.00 
freq.    1488.18  E(vib)   ...       0.00 
freq.    1491.86  E(vib)   ...       0.00 
freq.    1492.12  E(vib)   ...       0.00 
freq.    1492.73  E(vib)   ...       0.00 
freq.    1501.87  E(vib)   ...       0.00 
freq.    1502.28  E(vib)   ...       0.00 
freq.    1515.32  E(vib)   ...       0.00 
freq.    1518.64  E(vib)   ...       0.00 
freq.    1527.07  E(vib)   ...       0.00 
freq.    1534.91  E(vib)   ...       0.00 
freq.    1554.93  E(vib)   ...       0.00 
freq.    1598.93  E(vib)   ...       0.00 
freq.    1619.21  E(vib)   ...       0.00 
freq.    1640.78  E(vib)   ...       0.00 
freq.    1658.89  E(vib)   ...       0.00 
freq.    1758.23  E(vib)   ...       0.00 
freq.    3036.75  E(vib)   ...       0.00 
freq.    3041.91  E(vib)   ...       0.00 
freq.    3042.31  E(vib)   ...       0.00 
freq.    3044.31  E(vib)   ...       0.00 
freq.    3094.66  E(vib)   ...       0.00 
freq.    3097.04  E(vib)   ...       0.00 
freq.    3097.33  E(vib)   ...       0.00 
freq.    3101.18  E(vib)   ...       0.00 
freq.    3108.83  E(vib)   ...       0.00 
freq.    3109.84  E(vib)   ...       0.00 
freq.    3112.83  E(vib)   ...       0.00 
freq.    3120.68  E(vib)   ...       0.00 
freq.    3157.67  E(vib)   ...       0.00 
freq.    3166.00  E(vib)   ...       0.00 
freq.    3179.36  E(vib)   ...       0.00 
freq.    3186.84  E(vib)   ...       0.00 
freq.    3191.28  E(vib)   ...       0.00 
freq.    3191.58  E(vib)   ...       0.00 
freq.    3201.18  E(vib)   ...       0.00 
freq.    3202.54  E(vib)   ...       0.00 
freq.    3206.44  E(vib)   ...       0.00 
freq.    3232.94  E(vib)   ...       0.00 
freq.    3245.29  E(vib)   ...       0.00 
freq.    3251.30  E(vib)   ...       0.00 

------------
INNER ENERGY
------------

The inner energy is: U= E(el) + E(ZPE) + E(vib) + E(rot) + E(trans)
    E(el)   - is the total energy from the electronic structure calculation
              = E(kin-el) + E(nuc-el) + E(el-el) + E(nuc-nuc)
    E(ZPE)  - the the zero temperature vibrational energy from the frequency calculation
    E(vib)  - the the finite temperature correction to E(ZPE) due to population
              of excited vibrational states
    E(rot)  - is the rotational thermal energy
    E(trans)- is the translational thermal energy

Summary of contributions to the inner energy U:
Electronic energy                ...  -1603.81807945 Eh
Zero point energy                ...      0.41913675 Eh     263.01 kcal/mol
Thermal vibrational correction   ...      0.02529415 Eh      15.87 kcal/mol
Thermal rotational correction    ...      0.00141627 Eh       0.89 kcal/mol
Thermal translational correction ...      0.00141627 Eh       0.89 kcal/mol
-----------------------------------------------------------------------
Total thermal energy                  -1603.37081601 Eh


Summary of corrections to the electronic energy:
(perhaps to be used in another calculation)
Total thermal correction                  0.02812669 Eh      17.65 kcal/mol
Non-thermal (ZPE) correction              0.41913675 Eh     263.01 kcal/mol
-----------------------------------------------------------------------
Total correction                          0.44726344 Eh     280.66 kcal/mol


--------
ENTHALPY
--------

The enthalpy is H = U + kB*T
                kB is Boltzmann's constant
Total thermal energy              ...  -1603.37081601 Eh 
Thermal Enthalpy correction       ...      0.00094421 Eh       0.59 kcal/mol
-----------------------------------------------------------------------
Total Enthalpy                    ...  -1603.36987180 Eh


Note: Only C1 symmetry has been detected, increase convergence thresholds 
      if your molecule has a higher symmetry. Symmetry factor of 1.0 is   
      used for the rotational entropy correction. 
 

Note: Rotational entropy computed according to Herzberg 
Infrared and Raman Spectra, Chapter V,1, Van Nostrand Reinhold, 1945 
Point Group:  C1, Symmetry Number:   1  
Rotational constants in cm-1:     0.007041     0.006087     0.004367 

Vibrational entropy computed according to the QRRHO of S. Grimme
Chem.Eur.J. 2012 18 9955 using a reference frequency of 100.0 cm-1


-------
ENTROPY
-------

The entropy contributions are T*S = T*(S(el)+S(vib)+S(rot)+S(trans))
     S(el)   - electronic entropy
     S(vib)  - vibrational entropy
     S(rot)  - rotational entropy
     S(trans)- translational entropy
The entropies will be listed as multiplied by the temperature to get
units of energy

Electronic entropy                ...      0.00000000 Eh      0.00 kcal/mol
Vibrational entropy               ...      0.04561620 Eh     28.62 kcal/mol
Rotational entropy                ...      0.01682410 Eh     10.56 kcal/mol
Translational entropy             ...      0.02084658 Eh     13.08 kcal/mol
-----------------------------------------------------------------------
Final entropy term                ...      0.08328688 Eh     52.26 kcal/mol

In case the symmetry of your molecule has not been determined correctly
or in case you have a reason to use a different symmetry number we print 
out the resulting rotational entropy values for sn=1,12:

 non-linear molecules -----------------------------------
|  sn= 1 | S(rot)=       0.01682410 Eh     10.56 kcal/mol|
|  sn= 2 | S(rot)=       0.01616964 Eh     10.15 kcal/mol|
|  sn= 3 | S(rot)=       0.01578681 Eh      9.91 kcal/mol|
|  sn= 4 | S(rot)=       0.01551518 Eh      9.74 kcal/mol|
|  sn= 5 | S(rot)=       0.01530450 Eh      9.60 kcal/mol|
|  sn= 6 | S(rot)=       0.01513235 Eh      9.50 kcal/mol|
|  sn= 7 | S(rot)=       0.01498680 Eh      9.40 kcal/mol|
|  sn= 8 | S(rot)=       0.01486073 Eh      9.33 kcal/mol|
|  sn= 9 | S(rot)=       0.01474952 Eh      9.26 kcal/mol|
|  sn=10 | S(rot)=       0.01465004 Eh      9.19 kcal/mol|
|  sn=11 | S(rot)=       0.01456005 Eh      9.14 kcal/mol|
|  sn=12 | S(rot)=       0.01447789 Eh      9.08 kcal/mol|
 linear molecules ---------------------------------------
|  Dinfh | S(rot)=       0.01045623 Eh      6.56 kcal/mol|
|  Cinfv | S(rot)=       0.01111069 Eh      6.97 kcal/mol|
 --------------------------------------------------------


-------------------
GIBBS FREE ENERGY
-------------------

The Gibbs free energy is G = H - T*S

Total enthalpy                    ...  -1603.36987180 Eh 
Total entropy correction          ...     -0.08328688 Eh    -52.26 kcal/mol
-----------------------------------------------------------------------
Final Gibbs free energy         ...  -1603.45315868 Eh

For completeness - the Gibbs free energy minus the electronic energy
G-E(el)                           ...      0.36492077 Eh    228.99 kcal/mol


Maximum memory used throughout the entire PROP-calculation: 479.9 MB

--------------------------------
SUGGESTED CITATIONS FOR THIS RUN
--------------------------------

Below you find a list of papers that are relevant to this ORCA run
We neither can nor want to force you to cite these papers, but we appreciate if you do
You receive ORCA, which is the product of decades of hard work by many enthusiastic individuals, for free
The only thing we kindly ask in return is that you cite our papers,
We deeply appreciate it, if you show your appreciation for ORCA by not just citing the generic ORCA reference.

Please note that relegating all ORCA citations to the supporting information does *not* help us.
SI sections are not indexed - citations you put there will not count into any citation statistics
But we need these citations in order to attract the funding resources that allow us to do what we are doing

Therefore, if you are a happy ORCA user, please consider citing a few of the papers listed below in the main body of your paper

In addition to the list printed below, the program has created the file 3.bibtex that contains the list in bibtex format
You can import this file easily into all common literature databanks and citation aid programs


List of essential papers. We consider these as the minimum necessary citations

  1. Neese,F.
     Software update: the ORCA program system, version 5.0
     WIRES Comput. Molec. Sci., 2022 12(1)e1606
     doi.org/10.1002/wcms.1606

List of papers to cite with high priority. The work reported in these papers was absolutely
necessary for this run to complete.
Our perspective: the developers of density functionals and basis sets usually get cited in chemistry papers
Good! But without the algorithms to do something with them, the functionals or basis sets would not do anything.
Hence, in our opinion, the algorithm design and method developments papers are equally worthy of getting cited

  1. Neese,F.
     An improvement of the resolution of the identity approximation for the formation of the Coulomb matrix
     J. Comp. Chem., 2003 24(14)1740-1747
     doi.org/10.1002/jcc.10318
  2. Neese,F.; Wennmohs,F.; Hansen,A.; Becker,U.
     Efficient, approximate and parallel Hartree-Fock and hybrid DFT calculations. A 'chain-of-spheres' algorithm for the Hartree-Fock exchange
     Chem. Phys., 2009 356(1-3)98-109
     doi.org/10.1016/j.chemphys.2008.10.036
  3. Bykov,D.; Petrenko,T.; Izsak,R.; Kossmann,S.; Becker,U.; Valeev,E.; Neese,F.
     Efficient implementation of the analytic second derivatives of Hartree-Fock and hybrid DFT energies: a detailed analysis of different approximations
     Molec. Phys., 2015 113 1961-1977
     doi.org/10.1080/00268976.2015.1025114
  4. Garcia-Rates,M.; Neese,F.
     Efficient implementation of the analytical second derivatives of hartree-fock and hybrid DFT energies within the framework of the conductor-like polarizable continuum model
     J. Comput. Chem., 2019 40 1816-1828
     doi.org/10.1002/jcc.25833
  5. Garcia-Rates,M.; Neese,F.
     Effect of the Solute Cavity on the Solvation Energy and its Derivatives within the Framework of the Gaussian Charge Scheme
     J. Comput. Chem., 2020 41 922-939
     doi.org/10.1002/jcc.26139
  6. Helmich-Paris,B.; de Souza,B.; Neese,F.; Izsák,R.
     An improved chain of spheres for exchange algorithm
     J. Chem. Phys., 2021 155 104109
     doi.org/doi: 10.1063/5.0058766.
  7. Neese,F.
     The SHARK Integral Generation and Digestion System
     J. Comp. Chem., 2022  1-16
     doi.org/10.1002/jcc.26942

List of suggested additional citations. These are papers that are important in the 'surrounding' of 
of this run, or papers that preceded the highly important papers. If you like your results we are grateful for a citation.

  1. Izsak,R.; Neese,F.
     An overlap fitted chain of spheres exchange method
     J. Chem. Phys., 2011 135 144105
     doi.org/10.1063/1.3646921
  2. Izsak,R.; Hansen,A.; Neese,F.
     The resolution of identity and chain of spheres approximations for the LPNO-CCSD singles Fock term
     Molec. Phys., 2012 110 2413-2417
     doi.org/10.1080/00268976.2012.687466
  3. Neese,F.
     The ORCA program system
     WIRES Comput. Molec. Sci., 2012 2(1)73-78
     doi.org/10.1002/wcms.81
  4. Izsak,R.; Neese,F.; Klopper,W.
     Robust fitting techniques in the chain of spheres approximation to the Fock exchange: The role of the complementary space
     J. Chem. Phys., 2013 139 
     doi.org/10.1063/1.4819264
  5. Neese,F.
     Software update: the ORCA program system, version 4.0
     WIRES Comput. Molec. Sci., 2018 8(1)1-6
     doi.org/10.1002/wcms.1327
  6. Neese,F.; Wennmohs,F.; Becker,U.; Riplinger,C.
     The ORCA quantum chemistry program package
     J. Chem. Phys., 2020 152 Art. No. L224108
     doi.org/10.1063/5.0004608

List of optional additional citations

  1. Neese,F.
     Approximate second-order SCF convergence for spin unrestricted wavefunctions
     Chem. Phys. Lett., 2000 325(1-3)93-98
     doi.org/10.1016/s0009-2614(00)00662-x

Timings for individual modules:

Sum of individual times          ...    19696.047 sec (= 328.267 min)
Startup calculation              ...      299.587 sec (=   4.993 min)   1.5 %
SCF iterations                   ...     7744.921 sec (= 129.082 min)  39.3 %
Property integrals               ...     2160.354 sec (=  36.006 min)  11.0 %
SCF Response                     ...     3749.889 sec (=  62.498 min)  19.0 %
Property calculations            ...     1774.545 sec (=  29.576 min)   9.0 %
SCF Gradient evaluation          ...     3964.809 sec (=  66.080 min)  20.1 %
Geometry relaxation              ...        1.942 sec (=   0.032 min)   0.0 %
                             ****ORCA TERMINATED NORMALLY****
TOTAL RUN TIME: 0 days 5 hours 28 minutes 24 seconds 82 msec
