
                                 *****************
                                 * O   R   C   A *
                                 *****************

                                            #,                                       
                                            ###                                      
                                            ####                                     
                                            #####                                    
                                            ######                                   
                                           ########,                                 
                                     ,,################,,,,,                         
                               ,,#################################,,                 
                          ,,##########################################,,             
                       ,#########################################, ''#####,          
                    ,#############################################,,   '####,        
                  ,##################################################,,,,####,       
                ,###########''''           ''''###############################       
              ,#####''   ,,,,##########,,,,          '''####'''          '####       
            ,##' ,,,,###########################,,,                        '##       
           ' ,,###''''                  '''############,,,                           
         ,,##''                                '''############,,,,        ,,,,,,###''
      ,#''                                            '''#######################'''  
     '                                                          ''''####''''         
             ,#######,   #######,   ,#######,      ##                                
            ,#'     '#,  ##    ##  ,#'     '#,    #''#        ######   ,####,        
            ##       ##  ##   ,#'  ##            #'  '#       #        #'  '#        
            ##       ##  #######   ##           ,######,      #####,   #    #        
            '#,     ,#'  ##    ##  '#,     ,#' ,#      #,         ##   #,  ,#        
             '#######'   ##     ##  '#######'  #'      '#     #####' # '####'        



                  #######################################################
                  #                        -***-                        #
                  #          Department of theory and spectroscopy      #
                  #    Directorship and core code : Frank Neese         #
                  #        Max Planck Institute fuer Kohlenforschung    #
                  #                Kaiser Wilhelm Platz 1               #
                  #                 D-45470 Muelheim/Ruhr               #
                  #                      Germany                        #
                  #                                                     #
                  #                  All rights reserved                #
                  #                        -***-                        #
                  #######################################################


                         Program Version 5.0.4 -  RELEASE  -


 With contributions from (in alphabetic order):
   Daniel Aravena         : Magnetic Suceptibility
   Michael Atanasov       : Ab Initio Ligand Field Theory (pilot matlab implementation)
   Alexander A. Auer      : GIAO ZORA, VPT2 properties, NMR spectrum
   Ute Becker             : Parallelization
   Giovanni Bistoni       : ED, misc. LED, open-shell LED, HFLD
   Martin Brehm           : Molecular dynamics
   Dmytro Bykov           : SCF Hessian
   Vijay G. Chilkuri      : MRCI spin determinant printing, contributions to CSF-ICE
   Dipayan Datta          : RHF DLPNO-CCSD density
   Achintya Kumar Dutta   : EOM-CC, STEOM-CC
   Dmitry Ganyushin       : Spin-Orbit,Spin-Spin,Magnetic field MRCI
   Miquel Garcia          : C-PCM and meta-GGA Hessian, CC/C-PCM, Gaussian charge scheme
   Yang Guo               : DLPNO-NEVPT2, F12-NEVPT2, CIM, IAO-localization
   Andreas Hansen         : Spin unrestricted coupled pair/coupled cluster methods
   Benjamin Helmich-Paris : MC-RPA, TRAH-SCF, COSX integrals
   Lee Huntington         : MR-EOM, pCC
   Robert Izsak           : Overlap fitted RIJCOSX, COSX-SCS-MP3, EOM
   Marcus Kettner         : VPT2
   Christian Kollmar      : KDIIS, OOCD, Brueckner-CCSD(T), CCSD density, CASPT2, CASPT2-K
   Simone Kossmann        : Meta GGA functionals, TD-DFT gradient, OOMP2, MP2 Hessian
   Martin Krupicka        : Initial AUTO-CI
   Lucas Lang             : DCDCAS
   Marvin Lechner         : AUTO-CI (C++ implementation), FIC-MRCC
   Dagmar Lenk            : GEPOL surface, SMD
   Dimitrios Liakos       : Extrapolation schemes; Compound Job, initial MDCI parallelization
   Dimitrios Manganas     : Further ROCIS development; embedding schemes
   Dimitrios Pantazis     : SARC Basis sets
   Anastasios Papadopoulos: AUTO-CI, single reference methods and gradients
   Taras Petrenko         : DFT Hessian,TD-DFT gradient, ASA, ECA, R-Raman, ABS, FL, XAS/XES, NRVS
   Peter Pinski           : DLPNO-MP2, DLPNO-MP2 Gradient
   Christoph Reimann      : Effective Core Potentials
   Marius Retegan         : Local ZFS, SOC
   Christoph Riplinger    : Optimizer, TS searches, QM/MM, DLPNO-CCSD(T), (RO)-DLPNO pert. Triples
   Tobias Risthaus        : Range-separated hybrids, TD-DFT gradient, RPA, STAB
   Michael Roemelt        : Original ROCIS implementation
   Masaaki Saitow         : Open-shell DLPNO-CCSD energy and density
   Barbara Sandhoefer     : DKH picture change effects
   Avijit Sen             : IP-ROCIS
   Kantharuban Sivalingam : CASSCF convergence, NEVPT2, FIC-MRCI
   Bernardo de Souza      : ESD, SOC TD-DFT
   Georgi Stoychev        : AutoAux, RI-MP2 NMR, DLPNO-MP2 response
   Willem Van den Heuvel  : Paramagnetic NMR
   Boris Wezisla          : Elementary symmetry handling
   Frank Wennmohs         : Technical directorship


 We gratefully acknowledge several colleagues who have allowed us to
 interface, adapt or use parts of their codes:
   Stefan Grimme, W. Hujo, H. Kruse, P. Pracht,  : VdW corrections, initial TS optimization,
                  C. Bannwarth, S. Ehlert          DFT functionals, gCP, sTDA/sTD-DF
   Ed Valeev, F. Pavosevic, A. Kumar             : LibInt (2-el integral package), F12 methods
   Garnet Chan, S. Sharma, J. Yang, R. Olivares  : DMRG
   Ulf Ekstrom                                   : XCFun DFT Library
   Mihaly Kallay                                 : mrcc  (arbitrary order and MRCC methods)
   Jiri Pittner, Ondrej Demel                    : Mk-CCSD
   Frank Weinhold                                : gennbo (NPA and NBO analysis)
   Christopher J. Cramer and Donald G. Truhlar   : smd solvation model
   Lars Goerigk                                  : TD-DFT with DH, B97 family of functionals
   V. Asgeirsson, H. Jonsson                     : NEB implementation
   FAccTs GmbH                                   : IRC, NEB, NEB-TS, DLPNO-Multilevel, CI-OPT
                                                   MM, QMMM, 2- and 3-layer-ONIOM, Crystal-QMMM,
                                                   LR-CPCM, SF, NACMEs, symmetry and pop. for TD-DFT,
                                                   nearIR, NL-DFT gradient (VV10), updates on ESD,
                                                   ML-optimized integration grids
   S Lehtola, MJT Oliveira, MAL Marques          : LibXC Library
   Liviu Ungur et al                             : ANISO software


 Your calculation uses the libint2 library for the computation of 2-el integrals
 For citations please refer to: http://libint.valeyev.net

 Your ORCA version has been built with support for libXC version: 5.1.0
 For citations please refer to: https://tddft.org/programs/libxc/

 This ORCA versions uses:
   CBLAS   interface :  Fast vector & matrix operations
   LAPACKE interface :  Fast linear algebra routines
   SCALAPACK package :  Parallel linear algebra routines
   Shared memory     :  Shared parallel matrices
   BLAS/LAPACK       :  OpenBLAS 0.3.15  USE64BITINT DYNAMIC_ARCH NO_AFFINITY Zen SINGLE_THREADED
        Core in use  :  Zen
   Copyright (c) 2011-2014, The OpenBLAS Project


================================================================================

----- Orbital basis set information -----
Your calculation utilizes the basis: def2-TZVP(-f)
   F. Weigend and R. Ahlrichs, Phys. Chem. Chem. Phys. 7, 3297 (2005).

----- AuxJ basis set information -----
Your calculation utilizes the auxiliary basis: def2/J
   F. Weigend, Phys. Chem. Chem. Phys. 8, 1057 (2006).

----- AuxC basis set information -----
Your calculation utilizes the auxiliary basis: def2-TZVP/C
  H-La, Hf-Rn : A. Hellweg, C. Hattig, S. Hofener and W. Klopper, Theor. Chem. Acc. 117, 587 (2007).
        Ce-Lu : J. Chmela and M. E. Harding, Mol. Phys. (2018).

================================================================================
                                        WARNINGS
                       Please study these warnings very carefully!
================================================================================

INFO   : Checking CIS options ...

WARNING: Analytical Frequencies for this method not available!
  ===> : Switching to Numerical Frequencies!

WARNING: CIS/ROCIS methods need fully converged wavefunctions
  ===> : Setting SCFConvForced true
         You can overwrite this default with %scf ConvForced false 


INFO   : the flag for use of the SHARK integral package has been found!

================================================================================
                                       INPUT FILE
================================================================================
NAME = NMU-DCP_ES.inp
|  1> ! B3LYP/G FREQ Def2-TZVP(-f) Def2-TZVP/C Def2/J RIJCOSX TightSCF CPCM(Water) AllPop SOSCF
|  2> %maxcore 3000
|  3> 
|  4> %scf
|  5> 	MaxIter 125
|  6> 	CNVDIIS 1
|  7> 	CNVSOSCF 1 
|  8> end
|  9> 
| 10> %tddft
| 11>     NRoots 1
| 12>     IRoot 1
| 13> end 
| 14> 
| 15> * xyz 1 1
| 16>   C   -6.38001280675750     -1.42640066385238      0.18965275918110
| 17>   C   -6.48403864822505     -2.92850766176641      0.02419460546637
| 18>   C   -5.41736439591241     -3.60448068790518      0.87244064262738
| 19>   H   -6.35806160951830     -3.19244400893863     -1.02833263205975
| 20>   H   -7.48167894542619     -3.24335625952313      0.32888072834021
| 21>   C   -4.05964179221143     -3.04859864779091      0.55642648919367
| 22>   H   -5.41172642132795     -4.68448894802780      0.72708768839112
| 23>   H   -5.63086546622722     -3.42653562042983      1.93268077416470
| 24>   C   -3.92486285456036     -1.68164787314650      0.09486352523536
| 25>   N   -5.01974368215244     -0.92590075307830     -0.07250732011087
| 26>   H   -6.64873989980024     -1.12397222212251      1.20727926677382
| 27>   H   -7.04377835004282     -0.90399336703506     -0.49608164087658
| 28>   C   -4.93049551988476      0.50306046174057     -0.41451435975388
| 29>   C   -3.74051180781378      0.79048523662848     -1.30707298205112
| 30>   H   -4.86221111627115      1.06251449722662      0.52401563283997
| 31>   H   -5.86539880133296      0.77469298303916     -0.89743711427026
| 32>   C   -2.46502599475084      0.29010487451609     -0.64513848193732
| 33>   H   -3.68520764604883      1.86421834898765     -1.48313234473312
| 34>   H   -3.88410178899741      0.30216468590080     -2.27341795631380
| 35>   C   -2.62705440931541     -1.12495446148547     -0.16852877544637
| 36>   H   -2.21854024334615      0.92399681344293      0.21413532142481
| 37>   H   -1.61987979700998      0.35233896477992     -1.32880921823372
| 38>   C   -2.93174291806135     -3.79791228866863      0.72023013614375
| 39>   C   -1.53665608173799     -1.93686612641210      0.03547612770681
| 40>   C   -1.64750724936050     -3.27338371206172      0.46943735024323
| 41>   O   -0.30390132961077     -1.40011170940957     -0.20708473547007
| 42>   C   0.86684328380569     -2.11479937424721     -0.07870663967135
| 43>   C   -0.46054904603441     -4.03714251298132      0.62471100190356
| 44>   C   0.76064105507752     -3.50881950689041      0.35864284042859
| 45>   O   1.89445877858303     -1.53577411633758     -0.33941312496014
| 46>   C   2.01212720253525     -4.30198731677071      0.49042532952922
| 47>   C   2.90709564968178     -4.05642583859633      1.55456688397590
| 48>   C   2.25016772585206     -5.28886033918794     -0.41736629100710
| 49>   N   3.40097308691668     -6.09765241953996     -0.32320164821878
| 50>   C   4.29431205782180     -5.86371254324728      0.74055588671859
| 51>   C   4.05327084338973     -4.88153043929671      1.64273602891891
| 52>   H   1.58889888272593     -5.49626934474689     -1.24208483955978
| 53>   H   4.76663515880504     -4.74089686739571      2.44298364541297
| 54>   H   5.15371104099792     -6.51044468953128      0.77140965713126
| 55>   H   2.71699822938321     -3.27905293973853      2.27602354271692
| 56>   H   -3.01330283638779     -4.82334444832135      1.05734177249551
| 57>   H   -0.54502675379692     -5.06493325850194      0.95521985347602
| 58>   P   3.67416158793573     -7.32657688024255     -1.45949152997393
| 59>   O   4.93015645653111     -8.03000726796274     -1.15106336683003
| 60>   O   3.53961010482974     -6.64865070019335     -2.88073047754197
| 61>   O   2.34740163652857     -8.18334441288075     -1.51439547175698
| 62>   C   1.99980242514646     -9.06799041350244     -0.39903533629898
| 63>   C   4.58173548217725     -5.73463159468070     -3.35663329329973
| 64>   C   0.71149287632308     -9.77248936878262     -0.74787419090143
| 65>   H   1.89198804641412     -8.45909736260954      0.49944124972958
| 66>   H   2.81781157637492     -9.77362047910132     -0.25710606604092
| 67>   H   4.67728610042937     -4.91923037438909     -2.63852953698984
| 68>   C   4.17023078240488     -5.22612467945674     -4.71678304529932
| 69>   H   5.52116766609096     -6.28488851547590     -3.39980326963851
| 70>   H   -0.09771904505970     -9.05647236025446     -0.89599569379261
| 71>   H   0.43681580374465    -10.43840150709523      0.07209553012154
| 72>   H   0.82711987368223    -10.36990829074024     -1.65300443707221
| 73>   H   3.22565563388395     -4.68371819555441     -4.66171580824933
| 74>   H   4.06683188137388     -6.04842088472401     -5.42578398786283
| 75>   H   4.93773632753600     -4.54499261163066     -5.08874865406821
| 76> *
| 77> 
| 78> 
| 79>                          ****END OF INPUT****
================================================================================

                       ****************************
                       * Single Point Calculation *
                       ****************************

---------------------------------
CARTESIAN COORDINATES (ANGSTROEM)
---------------------------------
  C     -6.380013   -1.426401    0.189653
  C     -6.484039   -2.928508    0.024195
  C     -5.417364   -3.604481    0.872441
  H     -6.358062   -3.192444   -1.028333
  H     -7.481679   -3.243356    0.328881
  C     -4.059642   -3.048599    0.556426
  H     -5.411726   -4.684489    0.727088
  H     -5.630865   -3.426536    1.932681
  C     -3.924863   -1.681648    0.094864
  N     -5.019744   -0.925901   -0.072507
  H     -6.648740   -1.123972    1.207279
  H     -7.043778   -0.903993   -0.496082
  C     -4.930496    0.503060   -0.414514
  C     -3.740512    0.790485   -1.307073
  H     -4.862211    1.062514    0.524016
  H     -5.865399    0.774693   -0.897437
  C     -2.465026    0.290105   -0.645138
  H     -3.685208    1.864218   -1.483132
  H     -3.884102    0.302165   -2.273418
  C     -2.627054   -1.124954   -0.168529
  H     -2.218540    0.923997    0.214135
  H     -1.619880    0.352339   -1.328809
  C     -2.931743   -3.797912    0.720230
  C     -1.536656   -1.936866    0.035476
  C     -1.647507   -3.273384    0.469437
  O     -0.303901   -1.400112   -0.207085
  C      0.866843   -2.114799   -0.078707
  C     -0.460549   -4.037143    0.624711
  C      0.760641   -3.508820    0.358643
  O      1.894459   -1.535774   -0.339413
  C      2.012127   -4.301987    0.490425
  C      2.907096   -4.056426    1.554567
  C      2.250168   -5.288860   -0.417366
  N      3.400973   -6.097652   -0.323202
  C      4.294312   -5.863713    0.740556
  C      4.053271   -4.881530    1.642736
  H      1.588899   -5.496269   -1.242085
  H      4.766635   -4.740897    2.442984
  H      5.153711   -6.510445    0.771410
  H      2.716998   -3.279053    2.276024
  H     -3.013303   -4.823344    1.057342
  H     -0.545027   -5.064933    0.955220
  P      3.674162   -7.326577   -1.459492
  O      4.930156   -8.030007   -1.151063
  O      3.539610   -6.648651   -2.880730
  O      2.347402   -8.183344   -1.514395
  C      1.999802   -9.067990   -0.399035
  C      4.581735   -5.734632   -3.356633
  C      0.711493   -9.772489   -0.747874
  H      1.891988   -8.459097    0.499441
  H      2.817812   -9.773620   -0.257106
  H      4.677286   -4.919230   -2.638530
  C      4.170231   -5.226125   -4.716783
  H      5.521168   -6.284889   -3.399803
  H     -0.097719   -9.056472   -0.895996
  H      0.436816  -10.438402    0.072096
  H      0.827120  -10.369908   -1.653004
  H      3.225656   -4.683718   -4.661716
  H      4.066832   -6.048421   -5.425784
  H      4.937736   -4.544993   -5.088749

----------------------------
CARTESIAN COORDINATES (A.U.)
----------------------------
  NO LB      ZA    FRAG     MASS         X           Y           Z
   0 C     6.0000    0    12.011  -12.056477   -2.695507    0.358392
   1 C     6.0000    0    12.011  -12.253057   -5.534077    0.045721
   2 C     6.0000    0    12.011  -10.237335   -6.811481    1.648674
   3 H     1.0000    0     1.008  -12.014995   -6.032845   -1.943267
   4 H     1.0000    0     1.008  -14.138324   -6.129055    0.621495
   5 C     6.0000    0    12.011   -7.671611   -5.761017    1.051494
   6 H     1.0000    0     1.008  -10.226681   -8.852401    1.373997
   7 H     1.0000    0     1.008  -10.640794   -6.475214    3.652237
   8 C     6.0000    0    12.011   -7.416916   -3.177854    0.179266
   9 N     7.0000    0    14.007   -9.485941   -1.749699   -0.137019
  10 H     1.0000    0     1.008  -12.564298   -2.124000    2.281427
  11 H     1.0000    0     1.008  -13.310812   -1.708300   -0.937458
  12 C     6.0000    0    12.011   -9.317286    0.950647   -0.783319
  13 C     6.0000    0    12.011   -7.068543    1.493801   -2.470010
  14 H     1.0000    0     1.008   -9.188247    2.007861    0.990246
  15 H     1.0000    0     1.008  -11.083997    1.463958   -1.695910
  16 C     6.0000    0    12.011   -4.658224    0.548219   -1.219135
  17 H     1.0000    0     1.008   -6.964033    3.522862   -2.802714
  18 H     1.0000    0     1.008   -7.339889    0.571009   -4.296137
  19 C     6.0000    0    12.011   -4.964413   -2.125856   -0.318473
  20 H     1.0000    0     1.008   -4.192433    1.746101    0.404657
  21 H     1.0000    0     1.008   -3.061129    0.665824   -2.511086
  22 C     6.0000    0    12.011   -5.540191   -7.177014    1.361038
  23 C     6.0000    0    12.011   -2.903859   -3.660147    0.067040
  24 C     6.0000    0    12.011   -3.113338   -6.185799    0.887108
  25 O     8.0000    0    15.999   -0.574290   -2.645828   -0.391333
  26 C     6.0000    0    12.011    1.638096   -3.996392   -0.148734
  27 C     6.0000    0    12.011   -0.870312   -7.629094    1.180533
  28 C     6.0000    0    12.011    1.437403   -6.630708    0.677737
  29 O     8.0000    0    15.999    3.580008   -2.902192   -0.641398
  30 C     6.0000    0    12.011    3.802369   -8.129578    0.926770
  31 C     6.0000    0    12.011    5.493615   -7.665534    2.937706
  32 C     6.0000    0    12.011    4.252201   -9.994498   -0.788708
  33 N     7.0000    0    14.007    6.426908  -11.522893   -0.610763
  34 C     6.0000    0    12.011    8.115074  -11.080811    1.399448
  35 C     6.0000    0    12.011    7.659572   -9.224756    3.104321
  36 H     1.0000    0     1.008    3.002584  -10.386444   -2.347200
  37 H     1.0000    0     1.008    9.007635   -8.958997    4.616570
  38 H     1.0000    0     1.008    9.739102  -12.302957    1.457753
  39 H     1.0000    0     1.008    5.134383   -6.196512    4.301061
  40 H     1.0000    0     1.008   -5.694317   -9.114800    1.998086
  41 H     1.0000    0     1.008   -1.029951   -9.571337    1.805104
  42 P    15.0000    0    30.974    6.943159  -13.845224   -2.758039
  43 O     8.0000    0    15.999    9.316646  -15.174515   -2.175195
  44 O     8.0000    0    15.999    6.688894  -12.564129   -5.443792
  45 O     8.0000    0    15.999    4.435946  -15.464280   -2.861793
  46 C     6.0000    0    12.011    3.779079  -17.136018   -0.754068
  47 C     6.0000    0    12.011    8.658225  -10.836883   -6.343118
  48 C     6.0000    0    12.011    1.344527  -18.467329   -1.413277
  49 H     1.0000    0     1.008    3.575339  -15.985377    0.943807
  50 H     1.0000    0     1.008    5.324892  -18.469466   -0.485860
  51 H     1.0000    0     1.008    8.838790   -9.295998   -4.986098
  52 C     6.0000    0    12.011    7.880594   -9.875944   -8.913428
  53 H     1.0000    0     1.008   10.433495  -11.876718   -6.424697
  54 H     1.0000    0     1.008   -0.184662  -17.114253   -1.693186
  55 H     1.0000    0     1.008    0.825462  -19.725720    0.136241
  56 H     1.0000    0     1.008    1.563030  -19.596287   -3.123726
  57 H     1.0000    0     1.008    6.095606   -8.850945   -8.809366
  58 H     1.0000    0     1.008    7.685198  -11.429859  -10.253246
  59 H     1.0000    0     1.008    9.330969   -8.588791   -9.616341

--------------------------------
INTERNAL COORDINATES (ANGSTROEM)
--------------------------------
 C      0   0   0     0.000000000000     0.00000000     0.00000000
 C      1   0   0     1.514768368268     0.00000000     0.00000000
 C      2   1   0     1.521267508420   109.36445526     0.00000000
 H      2   1   3     1.092403860930   109.68898070   238.75608587
 H      2   1   3     1.089609762980   108.59485278   121.21484339
 C      3   2   1     1.500759959585   110.63094384   306.34502080
 H      3   2   1     1.089760115803   111.69266991   184.05369292
 H      3   2   1     1.096063999311   109.30802702    65.94607274
 C      6   3   2     1.449054916845   120.04182238    29.08890735
 N      9   6   3     1.340869395576   119.70276687   358.72687361
 H      1   2   3     1.095098590017   111.00857423   292.86712988
 H      1   2   3     1.087991611936   111.43231875   172.87565708
 C     10   9   6     1.472027242645   121.77800123   174.06476590
 C     13  10   9     1.515036346247   111.63321570    34.01045720
 H     13  10   9     1.094755737412   107.49843529   271.99741253
 H     13  10   9     1.086757911919   107.08087728   156.30774204
 C     14  13  10     1.521644455368   109.85976087   304.46140352
 H     14  13  10     1.089476133779   108.78685133   183.26269112
 H     14  13  10     1.092198540670   109.46096999    65.80214364
 C      9   6   3     1.436520037867   120.53105006   177.94113011
 H     17  14  13     1.095867549034   109.84136133   289.19301868
 H     17  14  13     1.088830038718   111.01991650   171.61942010
 C      6   3   2     1.363986230674   121.28741008   207.73333605
 C     20   9   6     1.374695262572   117.42016142   359.96092119
 C     24  20   9     1.409570707974   122.90940282     0.77709928
 O     24  20   9     1.366244983672   117.21389532   180.45910871
 C     26  24  20     1.377643765128   123.12243136   181.86643839
 C     25  24  20     1.419967319809   118.54983862   178.76212145
 C     28  25  24     1.356916625430   121.42813209   359.66055945
 O     27  26  24     1.207986641431   117.01021444   178.98263280
 C     29  28  25     1.487514496179   122.15356521   181.20897264
 C     31  29  28     1.411972453291   120.48437959   252.41744539
 C     31  29  28     1.361861696147   118.32013010    70.67767750
 N     33  31  29     1.409739191569   120.92432054   181.71303605
 C     34  33  31     1.408674013317   118.21957379     0.41340574
 C     35  34  33     1.355253319995   120.68109522   359.65391092
 H     33  31  29     1.077244476803   122.85729753     2.08061196
 H     36  35  34     1.081232026791   118.00921499   179.88630320
 H     35  34  33     1.076002340365   115.36261434   179.67711929
 H     32  31  29     1.077471746045   121.21707885   358.51792600
 H     23   6   3     1.082500526416   119.70207831     1.78075135
 H     28  25  24     1.082924928448   118.59740896   180.18059997
 P     34  33  31     1.695889731846   120.16483890   179.67473553
 O     43  34  33     1.472231419352   110.07783080   180.12729525
 O     43  34  33     1.580382280743   106.14039879    51.64433774
 O     43  34  33     1.580302824292   106.31429170   308.60943669
 C     46  43  34     1.465418708062   119.99932448   287.58958356
 C     45  43  34     1.465585110937   119.93424498    71.90604779
 C     47  46  43     1.509221262128   107.96001501   181.34993860
 H     47  46  43     1.090703838505   108.26528033    60.49764957
 H     47  46  43     1.089585553652   108.18076902   302.30522418
 H     48  45  43     1.090725481287   108.34483416   302.00129346
 C     48  45  43     1.509278883649   107.99200010   181.17959274
 H     48  45  43     1.089577511659   108.11872649    60.17813783
 H     49  47  46     1.090616463212   110.99573869   299.26747606
 H     49  47  46     1.091437956801   109.02514181   179.91301934
 H     49  47  46     1.090660228194   110.91693583    60.59992036
 H     53  48  45     1.090623402270   110.98961902    60.83688381
 H     53  48  45     1.090662513561   110.95671397   299.47302023
 H     53  48  45     1.091496252735   109.00460605   180.17390992

---------------------------
INTERNAL COORDINATES (A.U.)
---------------------------
 C      0   0   0     0.000000000000     0.00000000     0.00000000
 C      1   0   0     2.862497372354     0.00000000     0.00000000
 C      2   1   0     2.874778967346   109.36445526     0.00000000
 H      2   1   3     2.064344124795   109.68898070   238.75608587
 H      2   1   3     2.059064044879   108.59485278   121.21484339
 C      3   2   1     2.836025316370   110.63094384   306.34502080
 H      3   2   1     2.059348170539   111.69266991   184.05369292
 H      3   2   1     2.071260783949   109.30802702    65.94607274
 C      6   3   2     2.738316945849   120.04182238    29.08890735
 N      9   6   3     2.533875938995   119.70276687   358.72687361
 H      1   2   3     2.069436424776   111.00857423   292.86712988
 H      1   2   3     2.056006182563   111.43231875   172.87565708
 C     10   9   6     2.781728350271   121.77800123   174.06476590
 C     13  10   9     2.863003777344   111.63321570    34.01045720
 H     13  10   9     2.068788527248   107.49843529   271.99741253
 H     13  10   9     2.053674827400   107.08087728   156.30774204
 C     14  13  10     2.875491293846   109.85976087   304.46140352
 H     14  13  10     2.058811522285   108.78685133   183.26269112
 H     14  13  10     2.063956125735   109.46096999    65.80214364
 C      9   6   3     2.714629457459   120.53105006   177.94113011
 H     17  14  13     2.070889546726   109.84136133   289.19301868
 H     17  14  13     2.057590579564   111.01991650   171.61942010
 C      6   3   2     2.577560426414   121.28741008   207.73333605
 C     20   9   6     2.597797563860   117.42016142   359.96092119
 C     24  20   9     2.663702604469   122.90940282     0.77709928
 O     24  20   9     2.581828850984   117.21389532   180.45910871
 C     26  24  20     2.603369426196   123.12243136   181.86643839
 C     25  24  20     2.683349353557   118.54983862   178.76212145
 C     28  25  24     2.564200808628   121.42813209   359.66055945
 O     27  26  24     2.282763925740   117.01021444   178.98263280
 C     29  28  25     2.810995018016   122.15356521   181.20897264
 C     31  29  28     2.668241245360   120.48437959   252.41744539
 C     31  29  28     2.573545637995   118.32013010    70.67767750
 N     33  31  29     2.664020992322   120.92432054   181.71303605
 C     34  33  31     2.662008097140   118.21957379     0.41340574
 C     35  34  33     2.561057616877   120.68109522   359.65391092
 H     33  31  29     2.035697040437   122.85729753     2.08061196
 H     36  35  34     2.043232417859   118.00921499   179.88630320
 H     35  34  33     2.033349742747   115.36261434   179.67711929
 H     32  31  29     2.036126517062   121.21707885   358.51792600
 H     23   6   3     2.045629534752   119.70207831     1.78075135
 H     28  25  24     2.046431538363   118.59740896   180.18059997
 P     34  33  31     3.204767146518   120.16483890   179.67473553
 O     43  34  33     2.782114188329   110.07783080   180.12729525
 O     43  34  33     2.986489697506   106.14039879    51.64433774
 O     43  34  33     2.986339546574   106.31429170   308.60943669
 C     46  43  34     2.769240029762   119.99932448   287.58958356
 C     45  43  34     2.769554485623   119.93424498    71.90604779
 C     47  46  43     2.852014860914   107.96001501   181.34993860
 H     47  46  43     2.061131547990   108.26528033    60.49764957
 H     47  46  43     2.059018295879   108.18076902   302.30522418
 H     48  45  43     2.061172446921   108.34483416   302.00129346
 C     48  45  43     2.852123749808   107.99200010   181.17959274
 H     48  45  43     2.059003098715   108.11872649    60.17813783
 H     49  47  46     2.060966432616   110.99573869   299.26747606
 H     49  47  46     2.062518830521   109.02514181   179.91301934
 H     49  47  46     2.061049136447   110.91693583    60.59992036
 H     53  48  45     2.060979545536   110.98961902    60.83688381
 H     53  48  45     2.061053455165   110.95671397   299.47302023
 H     53  48  45     2.062628993871   109.00460605   180.17390992

---------------------
BASIS SET INFORMATION
---------------------
There are 5 groups of distinct atoms

 Group   1 Type C   : 11s6p2d contracted to 5s3p2d pattern {62111/411/11}
 Group   2 Type H   : 5s1p contracted to 3s1p pattern {311/1}
 Group   3 Type N   : 11s6p2d contracted to 5s3p2d pattern {62111/411/11}
 Group   4 Type O   : 11s6p2d contracted to 5s3p2d pattern {62111/411/11}
 Group   5 Type P   : 14s9p3d contracted to 5s5p2d pattern {73211/51111/21}

Atom   0C    basis set group =>   1
Atom   1C    basis set group =>   1
Atom   2C    basis set group =>   1
Atom   3H    basis set group =>   2
Atom   4H    basis set group =>   2
Atom   5C    basis set group =>   1
Atom   6H    basis set group =>   2
Atom   7H    basis set group =>   2
Atom   8C    basis set group =>   1
Atom   9N    basis set group =>   3
Atom  10H    basis set group =>   2
Atom  11H    basis set group =>   2
Atom  12C    basis set group =>   1
Atom  13C    basis set group =>   1
Atom  14H    basis set group =>   2
Atom  15H    basis set group =>   2
Atom  16C    basis set group =>   1
Atom  17H    basis set group =>   2
Atom  18H    basis set group =>   2
Atom  19C    basis set group =>   1
Atom  20H    basis set group =>   2
Atom  21H    basis set group =>   2
Atom  22C    basis set group =>   1
Atom  23C    basis set group =>   1
Atom  24C    basis set group =>   1
Atom  25O    basis set group =>   4
Atom  26C    basis set group =>   1
Atom  27C    basis set group =>   1
Atom  28C    basis set group =>   1
Atom  29O    basis set group =>   4
Atom  30C    basis set group =>   1
Atom  31C    basis set group =>   1
Atom  32C    basis set group =>   1
Atom  33N    basis set group =>   3
Atom  34C    basis set group =>   1
Atom  35C    basis set group =>   1
Atom  36H    basis set group =>   2
Atom  37H    basis set group =>   2
Atom  38H    basis set group =>   2
Atom  39H    basis set group =>   2
Atom  40H    basis set group =>   2
Atom  41H    basis set group =>   2
Atom  42P    basis set group =>   5
Atom  43O    basis set group =>   4
Atom  44O    basis set group =>   4
Atom  45O    basis set group =>   4
Atom  46C    basis set group =>   1
Atom  47C    basis set group =>   1
Atom  48C    basis set group =>   1
Atom  49H    basis set group =>   2
Atom  50H    basis set group =>   2
Atom  51H    basis set group =>   2
Atom  52C    basis set group =>   1
Atom  53H    basis set group =>   2
Atom  54H    basis set group =>   2
Atom  55H    basis set group =>   2
Atom  56H    basis set group =>   2
Atom  57H    basis set group =>   2
Atom  58H    basis set group =>   2
Atom  59H    basis set group =>   2
---------------------------------
AUXILIARY/J BASIS SET INFORMATION
---------------------------------
There are 5 groups of distinct atoms

 Group   1 Type C   : 12s5p4d2f1g contracted to 6s4p3d1f1g pattern {711111/2111/211/2/1}
 Group   2 Type H   : 5s2p1d contracted to 3s1p1d pattern {311/2/1}
 Group   3 Type N   : 12s5p4d2f1g contracted to 6s4p3d1f1g pattern {711111/2111/211/2/1}
 Group   4 Type O   : 12s5p4d2f1g contracted to 6s4p3d1f1g pattern {711111/2111/211/2/1}
 Group   5 Type P   : 14s5p5d2f1g contracted to 8s4p3d1f1g pattern {71111111/2111/311/2/1}

Atom   0C    basis set group =>   1
Atom   1C    basis set group =>   1
Atom   2C    basis set group =>   1
Atom   3H    basis set group =>   2
Atom   4H    basis set group =>   2
Atom   5C    basis set group =>   1
Atom   6H    basis set group =>   2
Atom   7H    basis set group =>   2
Atom   8C    basis set group =>   1
Atom   9N    basis set group =>   3
Atom  10H    basis set group =>   2
Atom  11H    basis set group =>   2
Atom  12C    basis set group =>   1
Atom  13C    basis set group =>   1
Atom  14H    basis set group =>   2
Atom  15H    basis set group =>   2
Atom  16C    basis set group =>   1
Atom  17H    basis set group =>   2
Atom  18H    basis set group =>   2
Atom  19C    basis set group =>   1
Atom  20H    basis set group =>   2
Atom  21H    basis set group =>   2
Atom  22C    basis set group =>   1
Atom  23C    basis set group =>   1
Atom  24C    basis set group =>   1
Atom  25O    basis set group =>   4
Atom  26C    basis set group =>   1
Atom  27C    basis set group =>   1
Atom  28C    basis set group =>   1
Atom  29O    basis set group =>   4
Atom  30C    basis set group =>   1
Atom  31C    basis set group =>   1
Atom  32C    basis set group =>   1
Atom  33N    basis set group =>   3
Atom  34C    basis set group =>   1
Atom  35C    basis set group =>   1
Atom  36H    basis set group =>   2
Atom  37H    basis set group =>   2
Atom  38H    basis set group =>   2
Atom  39H    basis set group =>   2
Atom  40H    basis set group =>   2
Atom  41H    basis set group =>   2
Atom  42P    basis set group =>   5
Atom  43O    basis set group =>   4
Atom  44O    basis set group =>   4
Atom  45O    basis set group =>   4
Atom  46C    basis set group =>   1
Atom  47C    basis set group =>   1
Atom  48C    basis set group =>   1
Atom  49H    basis set group =>   2
Atom  50H    basis set group =>   2
Atom  51H    basis set group =>   2
Atom  52C    basis set group =>   1
Atom  53H    basis set group =>   2
Atom  54H    basis set group =>   2
Atom  55H    basis set group =>   2
Atom  56H    basis set group =>   2
Atom  57H    basis set group =>   2
Atom  58H    basis set group =>   2
Atom  59H    basis set group =>   2
---------------------------------
AUXILIARY/C BASIS SET INFORMATION
---------------------------------
There are 5 groups of distinct atoms

 Group   1 Type C   : 8s6p5d3f1g contracted to 8s6p4d3f1g pattern {11111111/111111/2111/111/1}
 Group   2 Type H   : 4s3p2d contracted to 4s2p1d pattern {1111/21/2}
 Group   3 Type N   : 8s6p5d3f1g contracted to 8s6p4d3f1g pattern {11111111/111111/2111/111/1}
 Group   4 Type O   : 8s6p5d3f1g contracted to 8s6p4d3f1g pattern {11111111/111111/2111/111/1}
 Group   5 Type P   : 10s7p7d5f2g contracted to 9s7p6d5f2g pattern {211111111/1111111/211111/11111/11}

Atom   0C    basis set group =>   1
Atom   1C    basis set group =>   1
Atom   2C    basis set group =>   1
Atom   3H    basis set group =>   2
Atom   4H    basis set group =>   2
Atom   5C    basis set group =>   1
Atom   6H    basis set group =>   2
Atom   7H    basis set group =>   2
Atom   8C    basis set group =>   1
Atom   9N    basis set group =>   3
Atom  10H    basis set group =>   2
Atom  11H    basis set group =>   2
Atom  12C    basis set group =>   1
Atom  13C    basis set group =>   1
Atom  14H    basis set group =>   2
Atom  15H    basis set group =>   2
Atom  16C    basis set group =>   1
Atom  17H    basis set group =>   2
Atom  18H    basis set group =>   2
Atom  19C    basis set group =>   1
Atom  20H    basis set group =>   2
Atom  21H    basis set group =>   2
Atom  22C    basis set group =>   1
Atom  23C    basis set group =>   1
Atom  24C    basis set group =>   1
Atom  25O    basis set group =>   4
Atom  26C    basis set group =>   1
Atom  27C    basis set group =>   1
Atom  28C    basis set group =>   1
Atom  29O    basis set group =>   4
Atom  30C    basis set group =>   1
Atom  31C    basis set group =>   1
Atom  32C    basis set group =>   1
Atom  33N    basis set group =>   3
Atom  34C    basis set group =>   1
Atom  35C    basis set group =>   1
Atom  36H    basis set group =>   2
Atom  37H    basis set group =>   2
Atom  38H    basis set group =>   2
Atom  39H    basis set group =>   2
Atom  40H    basis set group =>   2
Atom  41H    basis set group =>   2
Atom  42P    basis set group =>   5
Atom  43O    basis set group =>   4
Atom  44O    basis set group =>   4
Atom  45O    basis set group =>   4
Atom  46C    basis set group =>   1
Atom  47C    basis set group =>   1
Atom  48C    basis set group =>   1
Atom  49H    basis set group =>   2
Atom  50H    basis set group =>   2
Atom  51H    basis set group =>   2
Atom  52C    basis set group =>   1
Atom  53H    basis set group =>   2
Atom  54H    basis set group =>   2
Atom  55H    basis set group =>   2
Atom  56H    basis set group =>   2
Atom  57H    basis set group =>   2
Atom  58H    basis set group =>   2
Atom  59H    basis set group =>   2
------------------------------------------------------------------------------
                           ORCA GTO INTEGRAL CALCULATION
                           -- RI-GTO INTEGRALS CHOSEN --
------------------------------------------------------------------------------
------------------------------------------------------------------------------
                   ___                                                        
                  /   \      - P O W E R E D   B Y -                         
                 /     \                                                     
                 |  |  |   _    _      __       _____    __    __             
                 |  |  |  | |  | |    /  \     |  _  \  |  |  /  |          
                  \  \/   | |  | |   /    \    | | | |  |  | /  /          
                 / \  \   | |__| |  /  /\  \   | |_| |  |  |/  /          
                |  |  |   |  __  | /  /__\  \  |    /   |      \           
                |  |  |   | |  | | |   __   |  |    \   |  |\   \          
                \     /   | |  | | |  |  |  |  | |\  \  |  | \   \       
                 \___/    |_|  |_| |__|  |__|  |_| \__\ |__|  \__/        
                                                                              
                      - O R C A' S   B I G   F R I E N D -                    
                                      &                                       
                       - I N T E G R A L  F E E D E R -                       
                                                                              
 v1 FN, 2020, v2 2021                                                         
------------------------------------------------------------------------------


Reading SHARK input file NMU-DCP_ES.SHARKINP.tmp ... ok
----------------------
SHARK INTEGRAL PACKAGE
----------------------

Number of atoms                             ...     60
Number of basis functions                   ...    942
Number of shells                            ...    434
Maximum angular momentum                    ...      2
Integral batch strategy                     ... SHARK/LIBINT Hybrid
RI-J (if used) integral strategy            ... SPLIT-RIJ (Revised 2003 algorithm where possible)
Printlevel                                  ...      1
Contraction scheme used                     ... SEGMENTED contraction
Coulomb Range Separation                    ... NOT USED
Exchange Range Separation                   ... NOT USED
Finite Nucleus Model                        ... NOT USED
Auxiliary Coulomb fitting basis             ... AVAILABLE
   # of basis functions in Aux-J            ...   1878
   # of shells in Aux-J                     ...    622
   Maximum angular momentum in Aux-J        ...      4
Auxiliary J/K fitting basis                 ... NOT available
Auxiliary Correlation fitting basis         ... AVAILABLE
   # of basis functions in Aux-C            ...   2889
   # of shells in Aux-C                     ...    907
   Maximum angular momentum in Aux-C        ...      4
Auxiliary 'external' fitting basis          ... NOT available
Integral threshold                          ...     2.500000e-11
Primitive cut-off                           ...     2.500000e-12
Primitive pair pre-selection threshold      ...     2.500000e-12

Calculating pre-screening integrals         ... done (  0.2 sec) Dimension = 434
Organizing shell pair data                  ... done (  4.8 sec)
Shell pair information
Total number of shell pairs                 ...     94395
Shell pairs after pre-screening             ...     51158
Total number of primitive shell pairs       ...    307738
Primitive shell pairs kept                  ...    105412
          la=0 lb=0:  15359 shell pairs
          la=1 lb=0:  17269 shell pairs
          la=1 lb=1:   4888 shell pairs
          la=2 lb=0:   8005 shell pairs
          la=2 lb=1:   4558 shell pairs
          la=2 lb=2:   1079 shell pairs

Calculating one electron integrals          ... done (  0.2 sec)
Calculating RI/J V-Matrix + Cholesky decomp.... done (  4.9 sec)
Calculating RI/C V-Matrix + Cholesky decomp.... done ( 11.6 sec)
Calculating Nuclear repulsion               ... done (  0.0 sec) ENN=   3400.763478776815 Eh

SHARK setup successfully completed in  29.1 seconds

Maximum memory used throughout the entire GTOINT-calculation: 349.8 MB
-------------------------------------------------------------------------------
                                 ORCA SCF
-------------------------------------------------------------------------------

------------
SCF SETTINGS
------------
Hamiltonian:
 Density Functional     Method          .... DFT(GTOs)
 Exchange Functional    Exchange        .... B88
   X-Alpha parameter    XAlpha          ....  0.666667
   Becke's b parameter  XBeta           ....  0.004200
 Correlation Functional Correlation     .... LYP
 LDA part of GGA corr.  LDAOpt          .... VWN-3
 Gradients option       PostSCFGGA      .... off
 Hybrid DFT is turned on
   Fraction HF Exchange ScalHFX         ....  0.200000
   Scaling of DF-GGA-X  ScalDFX         ....  0.720000
   Scaling of DF-GGA-C  ScalDFC         ....  0.810000
   Scaling of DF-LDA-C  ScalLDAC        ....  1.000000
   Perturbative correction              ....  0.000000
   Density functional embedding theory  .... OFF
   NL short-range parameter             ....  4.800000
 RI-approximation to the Coulomb term is turned on
   Number of AuxJ basis functions       .... 1878
   RIJ-COSX (HFX calculated with COS-X)).... on


General Settings:
 Integral files         IntName         .... NMU-DCP_ES
 Hartree-Fock type      HFTyp           .... RHF
 Total Charge           Charge          ....    1
 Multiplicity           Mult            ....    1
 Number of Electrons    NEL             ....  240
 Basis Dimension        Dim             ....  942
 Nuclear Repulsion      ENuc            ....   3400.7634787768 Eh

Convergence Acceleration:
 DIIS                   CNVDIIS         .... on
   Start iteration      DIISMaxIt       ....    12
   Startup error        DIISStart       ....  0.200000
   # of expansion vecs  DIISMaxEq       ....     5
   Bias factor          DIISBfac        ....   1.050
   Max. coefficient     DIISMaxC        ....  10.000
 Trust-Rad. Augm. Hess. CNVTRAH         .... auto
   Auto Start mean grad. ratio tolernc. ....  1.125000
   Auto Start start iteration           ....    20
   Auto Start num. interpolation iter.  ....    10
   Max. Number of Micro iterations      ....    16
   Max. Number of Macro iterations      .... Maxiter - #DIIS iter
   Number of Davidson start vectors     ....     2
   Converg. threshold I  (grad. norm)   ....   1.000e-05
   Converg. threshold II (energy diff.) ....   1.000e-08
   Grad. Scal. Fac. for Micro threshold ....   0.100
   Minimum threshold for Micro iter.    ....   0.010
   NR start threshold (gradient norm)   ....   0.001
   Initial trust radius                 ....   0.400
   Minimum AH scaling param. (alpha)    ....   1.000
   Maximum AH scaling param. (alpha)    .... 1000.000
   Orbital update algorithm             .... Taylor
   White noise on init. David. guess    .... on
   Maximum white noise                  ....   0.010
   Quad. conv. algorithm                .... NR
 SOSCF                  CNVSOSCF        .... on
   Start iteration      SOSCFMaxIt      ....   150
   Startup grad/error   SOSCFStart      ....  0.003300
 Level Shifting         CNVShift        .... on
   Level shift para.    LevelShift      ....    0.2500
   Turn off err/grad.   ShiftErr        ....    0.0010
 Zerner damping         CNVZerner       .... off
 Static damping         CNVDamp         .... on
   Fraction old density DampFac         ....    0.7000
   Max. Damping (<1)    DampMax         ....    0.9800
   Min. Damping (>=0)   DampMin         ....    0.0000
   Turn off err/grad.   DampErr         ....    0.1000
 Fernandez-Rico         CNVRico         .... off

SCF Procedure:
 Maximum # iterations   MaxIter         ....   125
 SCF integral mode      SCFMode         .... Direct
   Integral package                     .... SHARK and LIBINT hybrid scheme
 Reset frequency        DirectResetFreq ....    20
 Integral Threshold     Thresh          ....  2.500e-11 Eh
 Primitive CutOff       TCut            ....  2.500e-12 Eh

Convergence Tolerance:
 Convergence Check Mode ConvCheckMode   .... Total+1el-Energy
 Convergence forced     ConvForced      .... 1
 Energy Change          TolE            ....  1.000e-08 Eh
 1-El. energy change                    ....  1.000e-05 Eh
 Orbital Gradient       TolG            ....  1.000e-05
 Orbital Rotation angle TolX            ....  1.000e-05
 DIIS Error             TolErr          ....  5.000e-07


Diagonalization of the overlap matrix:
Smallest eigenvalue                        ... 3.605e-06
Time for diagonalization                   ...    0.230 sec
Threshold for overlap eigenvalues          ... 1.000e-08
Number of eigenvalues below threshold      ... 0
Time for construction of square roots      ...    0.698 sec
Total time needed                          ...    0.928 sec

Time for model grid setup =    2.591 sec

------------------------------
INITIAL GUESS: MODEL POTENTIAL
------------------------------
Loading Hartree-Fock densities                     ... done
Calculating cut-offs                               ... done
Initializing the effective Hamiltonian             ... done
Setting up the integral package (SHARK)            ... done
Starting the Coulomb interaction                   ... done (   3.2 sec)
Reading the grid                                   ... done
Mapping shells                                     ... done
Starting the XC term evaluation                    ... done (   1.6 sec)
  promolecular density results
     # of electrons  =    241.001610235
     EX              =   -208.801200388
     EC              =     -8.350093558
     EX+EC           =   -217.151293946
Transforming the Hamiltonian                       ... done (   0.1 sec)
Diagonalizing the Hamiltonian                      ... done (   0.1 sec)
Back transforming the eigenvectors                 ... done (   0.0 sec)
Now organizing SCF variables                       ... done
                      ------------------
                      INITIAL GUESS DONE (   8.4 sec)
                      ------------------
-------------------
DFT GRID GENERATION
-------------------

General Integration Accuracy     IntAcc      ... 4.388
Radial Grid Type                 RadialGrid  ... OptM3 with GC (2021)
Angular Grid (max. ang.)         AngularGrid ... 4 (Lebedev-302)
Angular grid pruning method      GridPruning ... 4 (adaptive)
Weight generation scheme         WeightScheme... Becke
Basis function cutoff            BFCut       ... 1.0000e-11
Integration weight cutoff        WCut        ... 1.0000e-14
Angular grids for H and He will be reduced by one unit
Partially contracted basis set               ... off
Rotationally invariant grid construction     ... off

Total number of grid points                  ...   281120
Total number of batches                      ...     4423
Average number of points per batch           ...       63
Average number of grid points per atom       ...     4685
Time for grid setup =    7.712 sec

--------------------
COSX GRID GENERATION
--------------------

GRIDX 1
-------
General Integration Accuracy     IntAcc      ... 3.816
Radial Grid Type                 RadialGrid  ... OptM3 with GC (2021)
Angular Grid (max. ang.)         AngularGrid ... 1 (Lebedev-50)
Angular grid pruning method      GridPruning ... 4 (adaptive)
Weight generation scheme         WeightScheme... Becke
Basis function cutoff            BFCut       ... 1.0000e-11
Integration weight cutoff        WCut        ... 1.0000e-14
Angular grids for H and He will be reduced by one unit
Partially contracted basis set               ... on
Rotationally invariant grid construction     ... off

Total number of grid points                  ...    35677
Total number of batches                      ...      590
Average number of points per batch           ...       60
Average number of grid points per atom       ...      595
UseSFitting                                  ... on

GRIDX 2
-------
General Integration Accuracy     IntAcc      ... 4.020
Radial Grid Type                 RadialGrid  ... OptM3 with GC (2021)
Angular Grid (max. ang.)         AngularGrid ... 2 (Lebedev-110)
Angular grid pruning method      GridPruning ... 4 (adaptive)
Weight generation scheme         WeightScheme... Becke
Basis function cutoff            BFCut       ... 1.0000e-11
Integration weight cutoff        WCut        ... 1.0000e-14
Angular grids for H and He will be reduced by one unit
Partially contracted basis set               ... on
Rotationally invariant grid construction     ... off

Total number of grid points                  ...    76539
Total number of batches                      ...     1227
Average number of points per batch           ...       62
Average number of grid points per atom       ...     1276
UseSFitting                                  ... on

GRIDX 3
-------
General Integration Accuracy     IntAcc      ... 4.338
Radial Grid Type                 RadialGrid  ... OptM3 with GC (2021)
Angular Grid (max. ang.)         AngularGrid ... 3 (Lebedev-194)
Angular grid pruning method      GridPruning ... 4 (adaptive)
Weight generation scheme         WeightScheme... Becke
Basis function cutoff            BFCut       ... 1.0000e-11
Integration weight cutoff        WCut        ... 1.0000e-14
Angular grids for H and He will be reduced by one unit
Partially contracted basis set               ... on
Rotationally invariant grid construction     ... off

Total number of grid points                  ...   167393
Total number of batches                      ...     2647
Average number of points per batch           ...       63
Average number of grid points per atom       ...     2790
UseSFitting                                  ... on

Time for X-Grid setup             =   16.425 sec


--------------------
CPCM SOLVATION MODEL
--------------------
CPCM parameters:
  Epsilon                                         ...      80.4000
  Refrac                                          ...       1.3300
  Rsolv                                           ...       1.3000
  Surface type                                    ... GAUSSIAN VDW
  Epsilon function type                           ...         CPCM
Radii:
 Radius for C  used is    3.8550 Bohr (=   2.0400 Ang.)
 Radius for H  used is    2.4944 Bohr (=   1.3200 Ang.)
 Radius for N  used is    3.5149 Bohr (=   1.8600 Ang.)
 Radius for O  used is    3.4469 Bohr (=   1.8240 Ang.)
 Radius for P  used is    4.0818 Bohr (=   2.1600 Ang.)
Calculating surface                               ...        done! (  0.0s)
GEPOL surface points                              ...         3153
GEPOL Volume                                      ...    3458.0417
GEPOL Surface-area                                ...    1748.1673
Calculating surface distance matrix               ...        done! (  0.0s)
Performing Cholesky decomposition & store         ...        done! (  7.0s)
Overall time for CPCM initialization              ...                 7.0s
--------------
SCF ITERATIONS
--------------
ITER       Energy         Delta-E        Max-DP      RMS-DP      [F,P]     Damp
               ***  Starting incremental Fock matrix formation  ***
  0  -1758.0253132239   0.000000000000 0.13426337  0.00091891  0.3759909 0.7000
  1  -1758.4394806515  -0.414167427617 0.11656619  0.00068712  0.1292826 0.7000
                               ***Turning on DIIS***
  2  -1758.5939834561  -0.154502804556 0.11412717  0.00108566  0.0383304 0.0000
  3  -1758.8550812795  -0.261097823459 0.10480787  0.00051130  0.0629437 0.0000
  4  -1758.9034943094  -0.048413029903 0.01974018  0.00015140  0.0260723 0.0000
  5  -1758.9071302105  -0.003635901052 0.01375505  0.00007170  0.0103146 0.0000
                      *** Initiating the SOSCF procedure ***
                           *** Shutting down DIIS ***
                      *** Re-Reading the Fockian *** 
                      *** Removing any level shift *** 
ITER      Energy       Delta-E        Grad      Rot      Max-DP    RMS-DP
  6  -1758.90741545  -0.0002852410  0.000213  0.000213  0.002798  0.000026
               *** Restarting incremental Fock matrix formation ***
  7  -1758.90740141   0.0000140374  0.000208  0.001201  0.006352  0.000042
  8  -1758.90740012   0.0000012915  0.000183  0.000244  0.001183  0.000009
  9  -1758.90740579  -0.0000056676  0.000034  0.000183  0.001302  0.000009
 10  -1758.90740568   0.0000001117  0.000033  0.000090  0.000269  0.000002
 11  -1758.90740592  -0.0000002435  0.000005  0.000025  0.000333  0.000002
 12  -1758.90740589   0.0000000346  0.000007  0.000012  0.000218  0.000001
                  ***Gradient check signals convergence***
              ***Rediagonalizing the Fockian in SOSCF/NRSCF***

               *****************************************************
               *                     SUCCESS                       *
               *           SCF CONVERGED AFTER  13 CYCLES          *
               *****************************************************

Old exchange energy                            =    -42.320930077 Eh
New exchange energy                            =    -42.320995707 Eh
Exchange energy change after final integration =     -0.000065630 Eh
Total energy after final integration           =  -1758.907471525 Eh
Final COS-X integration done in                =   171.613 sec

----------------
TOTAL SCF ENERGY
----------------

Total Energy       :        -1758.90747153 Eh          -47862.30557 eV

Components:
Nuclear Repulsion  :         3400.76347878 Eh           92539.47887 eV
Electronic Energy  :        -5159.67095030 Eh         -140401.78445 eV
One Electron Energy:        -9138.45820683 Eh         -248670.08995 eV
Two Electron Energy:         3978.78725653 Eh          108268.30550 eV
Max COSX asymmetry :            0.00000228 Eh               0.00006 eV
CPCM Dielectric    :           -0.09336854 Eh              -2.54069 eV

Virial components:
Potential Energy   :        -3510.06740207 Eh          -95513.78984 eV
Kinetic Energy     :         1751.15993054 Eh           47651.48426 eV
Virial Ratio       :            2.00442423


DFT components:
N(Alpha)           :      119.999941703733 electrons
N(Beta)            :      119.999941703733 electrons
N(Total)           :      239.999883407465 electrons
E(X)               :     -168.172584432155 Eh       
E(C)               :      -10.677050702658 Eh       
E(XC)              :     -178.849635134813 Eh       
DFET-embed. en.    :        0.000000000000 Eh       
CPCM Solvation Model Properties:
Surface-charge          :           -1.04051202
Charge-correction       :            0.00344014 Eh               0.09361 eV
Free-energy (cav+disp)  :  This term is not implemented in the current solvation scheme

---------------
SCF CONVERGENCE
---------------

  Last Energy change         ...   -7.8840e-09  Tolerance :   1.0000e-08
  Last MAX-Density change    ...    2.3315e-15  Tolerance :   1.0000e-07
  Last RMS-Density change    ...    1.5492e-17  Tolerance :   5.0000e-09
  Last Orbital Gradient      ...    2.3421e-06  Tolerance :   1.0000e-05
  Last Orbital Rotation      ...    1.0475e-05  Tolerance :   1.0000e-05

             **** THE GBW FILE WAS UPDATED (NMU-DCP_ES.gbw) ****
             **** DENSITY NMU-DCP_ES.scfp WAS UPDATED ****
             **** ENERGY FILE WAS UPDATED (NMU-DCP_ES.en.tmp) ****
             **** THE GBW FILE WAS UPDATED (NMU-DCP_ES.gbw) ****
             **** DENSITY NMU-DCP_ES.scfp WAS UPDATED ****
----------------
ORBITAL ENERGIES
----------------

  NO   OCC          E(Eh)            E(eV) 
   0   2.0000     -77.219973     -2101.2623 
   1   2.0000     -19.200680      -522.4771 
   2   2.0000     -19.186331      -522.0866 
   3   2.0000     -19.186300      -522.0858 
   4   2.0000     -19.123033      -520.3642 
   5   2.0000     -19.119622      -520.2714 
   6   2.0000     -14.449958      -393.2033 
   7   2.0000     -14.349083      -390.4584 
   8   2.0000     -10.315451      -280.6977 
   9   2.0000     -10.283067      -279.8165 
  10   2.0000     -10.281965      -279.7865 
  11   2.0000     -10.252469      -278.9839 
  12   2.0000     -10.249325      -278.8983 
  13   2.0000     -10.244104      -278.7563 
  14   2.0000     -10.244051      -278.7548 
  15   2.0000     -10.243750      -278.7466 
  16   2.0000     -10.233659      -278.4720 
  17   2.0000     -10.230383      -278.3829 
  18   2.0000     -10.210060      -277.8299 
  19   2.0000     -10.205304      -277.7004 
  20   2.0000     -10.204689      -277.6837 
  21   2.0000     -10.203615      -277.6545 
  22   2.0000     -10.186713      -277.1945 
  23   2.0000     -10.183363      -277.1034 
  24   2.0000     -10.183211      -277.0993 
  25   2.0000     -10.181137      -277.0428 
  26   2.0000     -10.174754      -276.8691 
  27   2.0000     -10.173154      -276.8256 
  28   2.0000     -10.171383      -276.7774 
  29   2.0000     -10.171341      -276.7763 
  30   2.0000     -10.169670      -276.7308 
  31   2.0000     -10.169641      -276.7300 
  32   2.0000      -6.688164      -181.9942 
  33   2.0000      -4.851243      -132.0090 
  34   2.0000      -4.850110      -131.9782 
  35   2.0000      -4.848612      -131.9374 
  36   2.0000      -1.129823       -30.7441 
  37   2.0000      -1.118664       -30.4404 
  38   2.0000      -1.061836       -28.8940 
  39   2.0000      -1.044515       -28.4227 
  40   2.0000      -1.032953       -28.1081 
  41   2.0000      -1.000136       -27.2151 
  42   2.0000      -0.974075       -26.5059 
  43   2.0000      -0.887191       -24.1417 
  44   2.0000      -0.868391       -23.6301 
  45   2.0000      -0.847157       -23.0523 
  46   2.0000      -0.832207       -22.6455 
  47   2.0000      -0.817165       -22.2362 
  48   2.0000      -0.793086       -21.5810 
  49   2.0000      -0.782133       -21.2829 
  50   2.0000      -0.770511       -20.9667 
  51   2.0000      -0.769440       -20.9375 
  52   2.0000      -0.762764       -20.7559 
  53   2.0000      -0.720767       -19.6131 
  54   2.0000      -0.704797       -19.1785 
  55   2.0000      -0.694817       -18.9069 
  56   2.0000      -0.675790       -18.3892 
  57   2.0000      -0.669118       -18.2076 
  58   2.0000      -0.659033       -17.9332 
  59   2.0000      -0.640634       -17.4325 
  60   2.0000      -0.634845       -17.2750 
  61   2.0000      -0.631321       -17.1791 
  62   2.0000      -0.630487       -17.1564 
  63   2.0000      -0.605307       -16.4712 
  64   2.0000      -0.578185       -15.7332 
  65   2.0000      -0.566745       -15.4219 
  66   2.0000      -0.555026       -15.1030 
  67   2.0000      -0.548284       -14.9196 
  68   2.0000      -0.546598       -14.8737 
  69   2.0000      -0.542692       -14.7674 
  70   2.0000      -0.532680       -14.4950 
  71   2.0000      -0.523121       -14.2348 
  72   2.0000      -0.505190       -13.7469 
  73   2.0000      -0.500502       -13.6194 
  74   2.0000      -0.498668       -13.5694 
  75   2.0000      -0.492941       -13.4136 
  76   2.0000      -0.485881       -13.2215 
  77   2.0000      -0.480449       -13.0737 
  78   2.0000      -0.475876       -12.9493 
  79   2.0000      -0.472339       -12.8530 
  80   2.0000      -0.470524       -12.8036 
  81   2.0000      -0.467060       -12.7094 
  82   2.0000      -0.459916       -12.5150 
  83   2.0000      -0.449663       -12.2359 
  84   2.0000      -0.446268       -12.1436 
  85   2.0000      -0.440863       -11.9965 
  86   2.0000      -0.438417       -11.9299 
  87   2.0000      -0.436762       -11.8849 
  88   2.0000      -0.433233       -11.7889 
  89   2.0000      -0.429079       -11.6758 
  90   2.0000      -0.423171       -11.5151 
  91   2.0000      -0.414298       -11.2736 
  92   2.0000      -0.411556       -11.1990 
  93   2.0000      -0.406788       -11.0693 
  94   2.0000      -0.400181       -10.8895 
  95   2.0000      -0.399108       -10.8603 
  96   2.0000      -0.395860       -10.7719 
  97   2.0000      -0.394525       -10.7356 
  98   2.0000      -0.393008       -10.6943 
  99   2.0000      -0.383179       -10.4268 
 100   2.0000      -0.375060       -10.2059 
 101   2.0000      -0.372540       -10.1373 
 102   2.0000      -0.370199       -10.0736 
 103   2.0000      -0.363398        -9.8886 
 104   2.0000      -0.357541        -9.7292 
 105   2.0000      -0.353344        -9.6150 
 106   2.0000      -0.350692        -9.5428 
 107   2.0000      -0.346953        -9.4411 
 108   2.0000      -0.344332        -9.3697 
 109   2.0000      -0.341707        -9.2983 
 110   2.0000      -0.340666        -9.2700 
 111   2.0000      -0.334478        -9.1016 
 112   2.0000      -0.327151        -8.9022 
 113   2.0000      -0.323370        -8.7993 
 114   2.0000      -0.321780        -8.7561 
 115   2.0000      -0.320335        -8.7168 
 116   2.0000      -0.298988        -8.1359 
 117   2.0000      -0.277920        -7.5626 
 118   2.0000      -0.243894        -6.6367 
 119   2.0000      -0.194943        -5.3047 
 120   0.0000      -0.128713        -3.5025 
 121   0.0000      -0.068422        -1.8619 
 122   0.0000      -0.061371        -1.6700 
 123   0.0000      -0.013237        -0.3602 
 124   0.0000      -0.002019        -0.0550 
 125   0.0000       0.018853         0.5130 
 126   0.0000       0.032240         0.8773 
 127   0.0000       0.038929         1.0593 
 128   0.0000       0.043983         1.1968 
 129   0.0000       0.047914         1.3038 
 130   0.0000       0.051097         1.3904 
 131   0.0000       0.054829         1.4920 
 132   0.0000       0.055531         1.5111 
 133   0.0000       0.061680         1.6784 
 134   0.0000       0.063157         1.7186 
 135   0.0000       0.064613         1.7582 
 136   0.0000       0.070138         1.9085 
 137   0.0000       0.072255         1.9662 
 138   0.0000       0.073707         2.0057 
 139   0.0000       0.076845         2.0911 
 140   0.0000       0.085479         2.3260 
 141   0.0000       0.086020         2.3407 
 142   0.0000       0.089288         2.4297 
 143   0.0000       0.092591         2.5195 
 144   0.0000       0.095659         2.6030 
 145   0.0000       0.099451         2.7062 
 146   0.0000       0.103779         2.8240 
 147   0.0000       0.105897         2.8816 
 148   0.0000       0.107139         2.9154 
 149   0.0000       0.111184         3.0255 
 150   0.0000       0.113434         3.0867 
 151   0.0000       0.115704         3.1485 
 152   0.0000       0.119153         3.2423 
 153   0.0000       0.122569         3.3353 
 154   0.0000       0.123964         3.3732 
 155   0.0000       0.125451         3.4137 
 156   0.0000       0.126015         3.4291 
 157   0.0000       0.131752         3.5852 
 158   0.0000       0.132647         3.6095 
 159   0.0000       0.136519         3.7149 
 160   0.0000       0.140746         3.8299 
 161   0.0000       0.144386         3.9289 
 162   0.0000       0.146728         3.9927 
 163   0.0000       0.149666         4.0726 
 164   0.0000       0.150576         4.0974 
 165   0.0000       0.153969         4.1897 
 166   0.0000       0.157579         4.2879 
 167   0.0000       0.159019         4.3271 
 168   0.0000       0.165447         4.5021 
 169   0.0000       0.166952         4.5430 
 170   0.0000       0.170166         4.6305 
 171   0.0000       0.176200         4.7947 
 172   0.0000       0.178060         4.8453 
 173   0.0000       0.178725         4.8634 
 174   0.0000       0.182782         4.9737 
 175   0.0000       0.185297         5.0422 
 176   0.0000       0.187276         5.0960 
 177   0.0000       0.191144         5.2013 
 178   0.0000       0.196428         5.3451 
 179   0.0000       0.198886         5.4120 
 180   0.0000       0.202806         5.5186 
 181   0.0000       0.206306         5.6139 
 182   0.0000       0.209442         5.6992 
 183   0.0000       0.210478         5.7274 
 184   0.0000       0.215967         5.8768 
 185   0.0000       0.217702         5.9240 
 186   0.0000       0.220447         5.9987 
 187   0.0000       0.221834         6.0364 
 188   0.0000       0.223928         6.0934 
 189   0.0000       0.226617         6.1666 
 190   0.0000       0.230480         6.2717 
 191   0.0000       0.234750         6.3879 
 192   0.0000       0.235702         6.4138 
 193   0.0000       0.238985         6.5031 
 194   0.0000       0.243492         6.6258 
 195   0.0000       0.244787         6.6610 
 196   0.0000       0.244931         6.6649 
 197   0.0000       0.256093         6.9686 
 198   0.0000       0.257450         7.0056 
 199   0.0000       0.262611         7.1460 
 200   0.0000       0.266103         7.2410 
 201   0.0000       0.267594         7.2816 
 202   0.0000       0.271215         7.3801 
 203   0.0000       0.272455         7.4139 
 204   0.0000       0.278072         7.5667 
 205   0.0000       0.282789         7.6951 
 206   0.0000       0.288726         7.8566 
 207   0.0000       0.292124         7.9491 
 208   0.0000       0.297217         8.0877 
 209   0.0000       0.298571         8.1245 
 210   0.0000       0.300901         8.1879 
 211   0.0000       0.304537         8.2869 
 212   0.0000       0.312464         8.5026 
 213   0.0000       0.315692         8.5904 
 214   0.0000       0.317319         8.6347 
 215   0.0000       0.324157         8.8208 
 216   0.0000       0.326870         8.8946 
 217   0.0000       0.329957         8.9786 
 218   0.0000       0.333912         9.0862 
 219   0.0000       0.334246         9.0953 
 220   0.0000       0.340145         9.2558 
 221   0.0000       0.343109         9.3365 
 222   0.0000       0.346185         9.4202 
 223   0.0000       0.349002         9.4968 
 224   0.0000       0.352694         9.5973 
 225   0.0000       0.355501         9.6737 
 226   0.0000       0.357278         9.7220 
 227   0.0000       0.363309         9.8861 
 228   0.0000       0.364473         9.9178 
 229   0.0000       0.369435        10.0528 
 230   0.0000       0.374623        10.1940 
 231   0.0000       0.379184        10.3181 
 232   0.0000       0.380509        10.3542 
 233   0.0000       0.389698        10.6042 
 234   0.0000       0.391252        10.6465 
 235   0.0000       0.394142        10.7251 
 236   0.0000       0.397865        10.8265 
 237   0.0000       0.402124        10.9424 
 238   0.0000       0.405866        11.0442 
 239   0.0000       0.407590        11.0911 
 240   0.0000       0.409594        11.1456 
 241   0.0000       0.411471        11.1967 
 242   0.0000       0.413578        11.2540 
 243   0.0000       0.415202        11.2982 
 244   0.0000       0.417443        11.3592 
 245   0.0000       0.418443        11.3864 
 246   0.0000       0.420085        11.4311 
 247   0.0000       0.423607        11.5269 
 248   0.0000       0.426834        11.6148 
 249   0.0000       0.429970        11.7001 
 250   0.0000       0.433355        11.7922 
 251   0.0000       0.435276        11.8445 
 252   0.0000       0.437933        11.9168 
 253   0.0000       0.439983        11.9725 
 254   0.0000       0.443560        12.0699 
 255   0.0000       0.444132        12.0854 
 256   0.0000       0.445216        12.1149 
 257   0.0000       0.446265        12.1435 
 258   0.0000       0.450566        12.2605 
 259   0.0000       0.451754        12.2929 
 260   0.0000       0.455807        12.4032 
 261   0.0000       0.457059        12.4372 
 262   0.0000       0.458525        12.4771 
 263   0.0000       0.460135        12.5209 
 264   0.0000       0.465082        12.6555 
 265   0.0000       0.465811        12.6753 
 266   0.0000       0.468399        12.7458 
 267   0.0000       0.472937        12.8693 
 268   0.0000       0.473825        12.8934 
 269   0.0000       0.477216        12.9857 
 270   0.0000       0.479113        13.0373 
 271   0.0000       0.483911        13.1679 
 272   0.0000       0.486977        13.2513 
 273   0.0000       0.489721        13.3260 
 274   0.0000       0.492170        13.3926 
 275   0.0000       0.494684        13.4610 
 276   0.0000       0.495056        13.4712 
 277   0.0000       0.497021        13.5246 
 278   0.0000       0.502622        13.6770 
 279   0.0000       0.503703        13.7065 
 280   0.0000       0.505237        13.7482 
 281   0.0000       0.507462        13.8088 
 282   0.0000       0.514119        13.9899 
 283   0.0000       0.515267        14.0211 
 284   0.0000       0.520672        14.1682 
 285   0.0000       0.525360        14.2958 
 286   0.0000       0.531208        14.4549 
 287   0.0000       0.532294        14.4845 
 288   0.0000       0.537252        14.6194 
 289   0.0000       0.539176        14.6717 
 290   0.0000       0.551700        15.0125 
 291   0.0000       0.556319        15.1382 
 292   0.0000       0.562249        15.2996 
 293   0.0000       0.563815        15.3422 
 294   0.0000       0.567278        15.4364 
 295   0.0000       0.576057        15.6753 
 296   0.0000       0.578086        15.7305 
 297   0.0000       0.586713        15.9653 
 298   0.0000       0.590038        16.0557 
 299   0.0000       0.594316        16.1722 
 300   0.0000       0.594619        16.1804 
 301   0.0000       0.597136        16.2489 
 302   0.0000       0.603350        16.4180 
 303   0.0000       0.609131        16.5753 
 304   0.0000       0.614242        16.7144 
 305   0.0000       0.625878        17.0310 
 306   0.0000       0.627916        17.0865 
 307   0.0000       0.633346        17.2342 
 308   0.0000       0.634472        17.2649 
 309   0.0000       0.639799        17.4098 
 310   0.0000       0.641663        17.4605 
 311   0.0000       0.646118        17.5818 
 312   0.0000       0.651929        17.7399 
 313   0.0000       0.653423        17.7805 
 314   0.0000       0.656567        17.8661 
 315   0.0000       0.657825        17.9003 
 316   0.0000       0.664896        18.0927 
 317   0.0000       0.666102        18.1256 
 318   0.0000       0.674654        18.3583 
 319   0.0000       0.683839        18.6082 
 320   0.0000       0.690829        18.7984 
 321   0.0000       0.693380        18.8678 
 322   0.0000       0.694260        18.8918 
 323   0.0000       0.698962        19.0197 
 324   0.0000       0.706097        19.2139 
 325   0.0000       0.711304        19.3556 
 326   0.0000       0.712872        19.3982 
 327   0.0000       0.718292        19.5457 
 328   0.0000       0.720651        19.6099 
 329   0.0000       0.726090        19.7579 
 330   0.0000       0.728747        19.8302 
 331   0.0000       0.733145        19.9499 
 332   0.0000       0.735789        20.0218 
 333   0.0000       0.741179        20.1685 
 334   0.0000       0.744660        20.2632 
 335   0.0000       0.747024        20.3275 
 336   0.0000       0.749187        20.3864 
 337   0.0000       0.756738        20.5919 
 338   0.0000       0.762059        20.7367 
 339   0.0000       0.763711        20.7816 
 340   0.0000       0.769699        20.9446 
 341   0.0000       0.770110        20.9558 
 342   0.0000       0.777143        21.1471 
 343   0.0000       0.785794        21.3825 
 344   0.0000       0.789242        21.4764 
 345   0.0000       0.791255        21.5311 
 346   0.0000       0.797508        21.7013 
 347   0.0000       0.807177        21.9644 
 348   0.0000       0.808595        22.0030 
 349   0.0000       0.812521        22.1098 
 350   0.0000       0.816785        22.2259 
 351   0.0000       0.819112        22.2892 
 352   0.0000       0.820397        22.3241 
 353   0.0000       0.826141        22.4804 
 354   0.0000       0.827299        22.5119 
 355   0.0000       0.838997        22.8303 
 356   0.0000       0.843695        22.9581 
 357   0.0000       0.848119        23.0785 
 358   0.0000       0.852483        23.1973 
 359   0.0000       0.854974        23.2650 
 360   0.0000       0.855550        23.2807 
 361   0.0000       0.862641        23.4737 
 362   0.0000       0.864418        23.5220 
 363   0.0000       0.866717        23.5846 
 364   0.0000       0.868435        23.6313 
 365   0.0000       0.870587        23.6899 
 366   0.0000       0.871834        23.7238 
 367   0.0000       0.878285        23.8993 
 368   0.0000       0.888106        24.1666 
 369   0.0000       0.889532        24.2054 
 370   0.0000       0.894653        24.3447 
 371   0.0000       0.902081        24.5469 
 372   0.0000       0.904576        24.6148 
 373   0.0000       0.907524        24.6950 
 374   0.0000       0.911615        24.8063 
 375   0.0000       0.914961        24.8973 
 376   0.0000       0.921472        25.0745 
 377   0.0000       0.926609        25.2143 
 378   0.0000       0.931381        25.3442 
 379   0.0000       0.938555        25.5394 
 380   0.0000       0.944844        25.7105 
 381   0.0000       0.947817        25.7914 
 382   0.0000       0.953586        25.9484 
 383   0.0000       0.958252        26.0754 
 384   0.0000       0.963975        26.2311 
 385   0.0000       0.966522        26.3004 
 386   0.0000       0.969292        26.3758 
 387   0.0000       0.973040        26.4778 
 388   0.0000       0.977169        26.5901 
 389   0.0000       0.984109        26.7790 
 390   0.0000       0.995626        27.0924 
 391   0.0000       0.998005        27.1571 
 392   0.0000       1.015030        27.6204 
 393   0.0000       1.020493        27.7690 
 394   0.0000       1.025287        27.8995 
 395   0.0000       1.026025        27.9196 
 396   0.0000       1.034241        28.1431 
 397   0.0000       1.044290        28.4166 
 398   0.0000       1.055085        28.7103 
 399   0.0000       1.057322        28.7712 
 400   0.0000       1.061902        28.8958 
 401   0.0000       1.065612        28.9968 
 402   0.0000       1.071716        29.1629 
 403   0.0000       1.074377        29.2353 
 404   0.0000       1.080126        29.3917 
 405   0.0000       1.082447        29.4549 
 406   0.0000       1.089638        29.6505 
 407   0.0000       1.093929        29.7673 
 408   0.0000       1.098623        29.8951 
 409   0.0000       1.107224        30.1291 
 410   0.0000       1.112198        30.2645 
 411   0.0000       1.114454        30.3258 
 412   0.0000       1.116574        30.3835 
 413   0.0000       1.121118        30.5072 
 414   0.0000       1.124829        30.6082 
 415   0.0000       1.134310        30.8661 
 416   0.0000       1.137503        30.9530 
 417   0.0000       1.144983        31.1566 
 418   0.0000       1.150019        31.2936 
 419   0.0000       1.158033        31.5117 
 420   0.0000       1.165645        31.7188 
 421   0.0000       1.171107        31.8674 
 422   0.0000       1.180427        32.1211 
 423   0.0000       1.191174        32.4135 
 424   0.0000       1.196050        32.5462 
 425   0.0000       1.207409        32.8553 
 426   0.0000       1.213729        33.0272 
 427   0.0000       1.220869        33.2215 
 428   0.0000       1.225175        33.3387 
 429   0.0000       1.229875        33.4666 
 430   0.0000       1.232159        33.5288 
 431   0.0000       1.237306        33.6688 
 432   0.0000       1.240340        33.7514 
 433   0.0000       1.243823        33.8462 
 434   0.0000       1.249665        34.0051 
 435   0.0000       1.253911        34.1207 
 436   0.0000       1.259419        34.2705 
 437   0.0000       1.269151        34.5354 
 438   0.0000       1.277533        34.7634 
 439   0.0000       1.280243        34.8372 
 440   0.0000       1.291980        35.1566 
 441   0.0000       1.294866        35.2351 
 442   0.0000       1.298318        35.3290 
 443   0.0000       1.307130        35.5688 
 444   0.0000       1.320168        35.9236 
 445   0.0000       1.323919        36.0257 
 446   0.0000       1.327375        36.1197 
 447   0.0000       1.331597        36.2346 
 448   0.0000       1.335994        36.3543 
 449   0.0000       1.343674        36.5632 
 450   0.0000       1.347481        36.6668 
 451   0.0000       1.353950        36.8429 
 452   0.0000       1.354858        36.8676 
 453   0.0000       1.358073        36.9550 
 454   0.0000       1.369294        37.2604 
 455   0.0000       1.374950        37.4143 
 456   0.0000       1.379761        37.5452 
 457   0.0000       1.391732        37.8710 
 458   0.0000       1.397526        38.0286 
 459   0.0000       1.413600        38.4660 
 460   0.0000       1.417094        38.5611 
 461   0.0000       1.425945        38.8019 
 462   0.0000       1.435727        39.0681 
 463   0.0000       1.439578        39.1729 
 464   0.0000       1.441377        39.2219 
 465   0.0000       1.446603        39.3641 
 466   0.0000       1.452323        39.5197 
 467   0.0000       1.457822        39.6694 
 468   0.0000       1.464427        39.8491 
 469   0.0000       1.471346        40.0374 
 470   0.0000       1.473228        40.0886 
 471   0.0000       1.479513        40.2596 
 472   0.0000       1.486367        40.4461 
 473   0.0000       1.496226        40.7144 
 474   0.0000       1.499891        40.8141 
 475   0.0000       1.507758        41.0282 
 476   0.0000       1.510558        41.1044 
 477   0.0000       1.515011        41.2256 
 478   0.0000       1.520601        41.3777 
 479   0.0000       1.526017        41.5250 
 480   0.0000       1.528379        41.5893 
 481   0.0000       1.532250        41.6946 
 482   0.0000       1.537415        41.8352 
 483   0.0000       1.539700        41.8974 
 484   0.0000       1.542429        41.9716 
 485   0.0000       1.544346        42.0238 
 486   0.0000       1.550012        42.1780 
 487   0.0000       1.555607        42.3302 
[...]
 98:   1148.42   0.005738   29.00  0.001559  (-0.014018 -0.033682  0.015110)
 99:   1161.58   0.010021   50.64  0.002692  (-0.039430  0.028394 -0.018200)
100:   1170.82   0.000100    0.51  0.000027  (-0.003350  0.002457  0.003077)
101:   1172.83   0.004462   22.55  0.001187  (-0.022030  0.024253  0.010660)
102:   1190.39   0.007431   37.56  0.001948  ( 0.039954 -0.018489  0.003169)
103:   1200.54   0.069710  352.29  0.018120  (-0.132944  0.012992  0.016655)
104:   1213.48   0.000920    4.65  0.000237  (-0.006542  0.004456 -0.013188)
105:   1229.60   0.081144  410.07  0.020594  ( 0.136283 -0.043776  0.010213)
106:   1232.97   0.005572   28.16  0.001410  (-0.032942  0.016008 -0.008301)
107:   1237.02   0.041966  212.08  0.010587  ( 0.089002 -0.051488  0.003789)
108:   1260.71   0.008327   42.08  0.002061  (-0.037750  0.024861 -0.004234)
109:   1268.78   0.062254  314.61  0.015312  ( 0.109403 -0.036962  0.044459)
110:   1273.62   0.046293  233.94  0.011343  ( 0.077320 -0.071849 -0.014216)
111:   1295.05   0.002346   11.85  0.000565  ( 0.022415  0.002285 -0.007585)
112:   1306.73   0.053395  269.83  0.012751  ( 0.111402 -0.016214 -0.008836)
113:   1310.09   0.172134  869.90  0.041002  (-0.198122  0.037462 -0.018617)
114:   1310.81   0.000245    1.24  0.000058  ( 0.007196 -0.002448 -0.000774)
115:   1312.60   0.000086    0.43  0.000020  ( 0.001055  0.000413 -0.004371)
116:   1335.40   0.020840  105.32  0.004870  (-0.065666  0.008842 -0.021907)
117:   1344.03   0.066570  336.42  0.015457  (-0.117984  0.038770  0.005759)
118:   1348.42   0.068873  348.05  0.015939  (-0.109911  0.060983 -0.011818)
119:   1353.70   0.020721  104.72  0.004777  (-0.049337  0.048129 -0.005115)
120:   1357.30   0.002393   12.09  0.000550  ( 0.018525 -0.014371  0.000690)
121:   1380.25   0.001194    6.03  0.000270  (-0.013745 -0.008403  0.003217)
122:   1385.87   0.025720  129.98  0.005791  (-0.028606  0.069315 -0.012983)
123:   1387.39   0.003886   19.64  0.000874  (-0.028176  0.007228 -0.005285)
124:   1392.20   0.019796  100.04  0.004437  ( 0.056349 -0.035487 -0.001640)
125:   1400.60   0.000194    0.98  0.000043  ( 0.004803 -0.003554  0.002753)
126:   1400.64   0.009511   48.07  0.002119  (-0.030952  0.033980 -0.002541)
127:   1402.53   0.001404    7.09  0.000312  ( 0.015447 -0.004405  0.007373)
128:   1417.15   0.007159   36.18  0.001576  ( 0.019589  0.027665 -0.020671)
129:   1418.68   0.001411    7.13  0.000310  ( 0.004612  0.004277  0.016459)
130:   1440.86   0.005186   26.21  0.001123  ( 0.017331 -0.028316 -0.004587)
131:   1448.19   0.032566  164.58  0.007018  (-0.066066  0.046955 -0.021168)
132:   1458.35   0.009902   50.04  0.002119  (-0.043348  0.013772  0.007079)
133:   1459.61   0.001499    7.57  0.000320  (-0.014950  0.009839  0.000303)
134:   1470.28   0.001479    7.47  0.000314  (-0.006766  0.013730  0.008919)
135:   1470.40   0.003082   15.58  0.000654  (-0.013132  0.018963  0.011049)
136:   1472.70   0.013106   66.23  0.002777  ( 0.050587 -0.008762  0.011892)
137:   1475.68   0.013306   67.24  0.002814  ( 0.041875 -0.030139  0.012325)
138:   1482.24   0.000824    4.16  0.000173  ( 0.004947  0.007895 -0.009306)
139:   1482.38   0.000383    1.94  0.000081  (-0.007109 -0.005491 -0.000107)
140:   1485.25   0.000635    3.21  0.000133  (-0.010541 -0.003556  0.003092)
141:   1486.61   0.003467   17.52  0.000728  (-0.019310  0.014652  0.011841)
142:   1490.70   0.024474  123.68  0.005123  ( 0.044798 -0.055825  0.000021)
143:   1509.72   0.000398    2.01  0.000082  (-0.005038 -0.004371 -0.006146)
144:   1510.22   0.033871  171.17  0.006999  ( 0.074991 -0.036711  0.005243)
145:   1510.76   0.003317   16.76  0.000685  ( 0.016978  0.003587  0.019597)
146:   1531.16   0.167203  844.98  0.034077  ( 0.173383 -0.063206 -0.004551)
147:   1563.43   0.012206   61.68  0.002436  ( 0.016480  0.041288 -0.021447)
148:   1590.41   0.332539  1680.52  0.065250  (-0.249064  0.056540  0.004429)
149:   1648.48   0.003694   18.67  0.000699  ( 0.017290 -0.010178  0.017224)
150:   1665.43   0.026343  133.12  0.004936  (-0.018020 -0.045734 -0.050197)
151:   1728.64   0.312411  1578.80  0.056398  (-0.214562 -0.090831  0.045948)
152:   3014.43   0.008838   44.67  0.000915  ( 0.016930  0.010268 -0.022867)
153:   3017.34   0.006990   35.32  0.000723  (-0.009902 -0.022397 -0.011101)
154:   3026.92   0.008068   40.77  0.000832  ( 0.026839 -0.001083 -0.010503)
155:   3031.65   0.038906  196.61  0.004005  (-0.043598  0.041321  0.019914)
156:   3040.47   0.002425   12.25  0.000249  ( 0.003635 -0.003938  0.014838)
157:   3041.73   0.002717   13.73  0.000279  (-0.014054 -0.007427 -0.005102)
158:   3053.27   0.006860   34.67  0.000701  (-0.005883 -0.011050 -0.023332)
159:   3055.30   0.014214   71.83  0.001452  (-0.003966 -0.005450 -0.037502)
160:   3057.38   0.002250   11.37  0.000230  ( 0.009578  0.009422 -0.007013)
161:   3058.18   0.007155   36.16  0.000730  (-0.017313 -0.002969 -0.020532)
162:   3094.80   0.007516   37.99  0.000758  (-0.009496 -0.025585 -0.003627)
163:   3097.74   0.000068    0.34  0.000007  (-0.000623 -0.002288  0.001092)
164:   3098.09   0.000015    0.08  0.000002  ( 0.000948  0.000015 -0.000810)
165:   3104.35   0.005888   29.75  0.000592  ( 0.011477  0.014611 -0.015706)
166:   3106.90   0.011650   58.87  0.001170  ( 0.031431 -0.000982 -0.013462)
167:   3107.56   0.004575   23.12  0.000459  (-0.017796 -0.011306 -0.003853)
168:   3108.20   0.004520   22.84  0.000454  (-0.004525  0.006614 -0.019739)
169:   3108.86   0.009966   50.36  0.001000  (-0.008281  0.029176  0.008976)
170:   3117.00   0.004790   24.21  0.000480  (-0.011773  0.009423 -0.015880)
171:   3120.81   0.004951   25.02  0.000495  (-0.012393  0.015450  0.010139)
172:   3121.15   0.012275   62.03  0.001227  (-0.018024  0.027021  0.013123)
173:   3131.87   0.015412   77.89  0.001536  (-0.031561  0.011966 -0.019911)
174:   3195.14   0.000956    4.83  0.000093  ( 0.006740  0.006483 -0.002438)
175:   3196.58   0.001442    7.29  0.000141  ( 0.002311  0.010957 -0.003916)
176:   3203.45   0.000514    2.60  0.000050  ( 0.000191  0.004376  0.005561)
177:   3240.85   0.002451   12.39  0.000236  (-0.002584 -0.009215 -0.012018)
178:   3249.64   0.004036   20.39  0.000388  ( 0.010291  0.005785  0.015753)
179:   3266.72   0.007744   39.13  0.000740  (-0.021201  0.016969  0.001534)

* The epsilon (eps) is given for a Dirac delta lineshape.
** The dipole moment derivative (T) already includes vibrational overlap.

The first frequency considered to be a vibration is 7
The total number of vibrations considered is 173


--------------------------
THERMOCHEMISTRY AT 298.15K
--------------------------

Temperature         ... 298.15 K
Pressure            ... 1.00 atm
Total Mass          ... 455.47 AMU

Throughout the following assumptions are being made:
  (1) The electronic state is orbitally nondegenerate
  (2) There are no thermally accessible electronically excited states
  (3) Hindered rotations indicated by low frequency modes are not
      treated as such but are treated as vibrations and this may
      cause some error
  (4) All equations used are the standard statistical mechanics
      equations for an ideal gas
  (5) All vibrations are strictly harmonic

freq.       8.98  E(vib)   ...       0.58 
freq.      15.34  E(vib)   ...       0.57 
freq.      19.23  E(vib)   ...       0.57 
freq.      25.20  E(vib)   ...       0.56 
freq.      40.87  E(vib)   ...       0.54 
freq.      55.63  E(vib)   ...       0.52 
freq.      60.45  E(vib)   ...       0.51 
freq.      68.05  E(vib)   ...       0.50 
freq.      70.00  E(vib)   ...       0.50 
freq.      79.24  E(vib)   ...       0.49 
freq.      87.00  E(vib)   ...       0.48 
freq.      97.80  E(vib)   ...       0.46 
freq.     105.88  E(vib)   ...       0.45 
freq.     150.94  E(vib)   ...       0.40 
freq.     164.31  E(vib)   ...       0.39 
freq.     165.65  E(vib)   ...       0.39 
freq.     180.14  E(vib)   ...       0.37 
freq.     197.63  E(vib)   ...       0.35 
freq.     204.67  E(vib)   ...       0.35 
freq.     228.86  E(vib)   ...       0.32 
freq.     252.13  E(vib)   ...       0.30 
freq.     254.98  E(vib)   ...       0.30 
freq.     257.80  E(vib)   ...       0.30 
freq.     289.18  E(vib)   ...       0.27 
freq.     298.44  E(vib)   ...       0.26 
freq.     308.30  E(vib)   ...       0.26 
freq.     316.94  E(vib)   ...       0.25 
freq.     327.81  E(vib)   ...       0.24 
freq.     330.93  E(vib)   ...       0.24 
freq.     343.28  E(vib)   ...       0.23 
freq.     351.47  E(vib)   ...       0.23 
freq.     368.56  E(vib)   ...       0.21 
freq.     380.27  E(vib)   ...       0.21 
freq.     399.58  E(vib)   ...       0.19 
freq.     420.08  E(vib)   ...       0.18 
freq.     439.71  E(vib)   ...       0.17 
freq.     455.72  E(vib)   ...       0.16 
freq.     463.84  E(vib)   ...       0.16 
freq.     477.15  E(vib)   ...       0.15 
freq.     493.96  E(vib)   ...       0.14 
freq.     511.50  E(vib)   ...       0.14 
freq.     517.51  E(vib)   ...       0.13 
freq.     532.34  E(vib)   ...       0.13 
freq.     542.00  E(vib)   ...       0.12 
freq.     545.21  E(vib)   ...       0.12 
freq.     560.31  E(vib)   ...       0.11 
freq.     598.62  E(vib)   ...       0.10 
freq.     610.90  E(vib)   ...       0.10 
freq.     630.14  E(vib)   ...       0.09 
freq.     634.98  E(vib)   ...       0.09 
freq.     667.24  E(vib)   ...       0.08 
freq.     684.51  E(vib)   ...       0.07 
freq.     703.92  E(vib)   ...       0.07 
freq.     713.04  E(vib)   ...       0.07 
freq.     745.07  E(vib)   ...       0.06 
freq.     759.96  E(vib)   ...       0.06 
freq.     780.92  E(vib)   ...       0.05 
freq.     782.59  E(vib)   ...       0.05 
freq.     787.29  E(vib)   ...       0.05 
freq.     797.70  E(vib)   ...       0.05 
freq.     804.09  E(vib)   ...       0.05 
freq.     812.79  E(vib)   ...       0.05 
freq.     816.90  E(vib)   ...       0.05 
freq.     817.54  E(vib)   ...       0.05 
freq.     855.52  E(vib)   ...       0.04 
freq.     865.83  E(vib)   ...       0.04 
freq.     878.72  E(vib)   ...       0.04 
freq.     894.38  E(vib)   ...       0.03 
freq.     902.25  E(vib)   ...       0.03 
freq.     916.94  E(vib)   ...       0.03 
freq.     924.34  E(vib)   ...       0.03 
freq.     952.38  E(vib)   ...       0.03 
freq.     956.81  E(vib)   ...       0.03 
freq.     970.22  E(vib)   ...       0.03 
freq.     972.62  E(vib)   ...       0.03 
freq.     977.35  E(vib)   ...       0.03 
freq.    1001.45  E(vib)   ...       0.02 
freq.    1004.74  E(vib)   ...       0.02 
freq.    1007.73  E(vib)   ...       0.02 
freq.    1029.14  E(vib)   ...       0.02 
freq.    1038.63  E(vib)   ...       0.02 
freq.    1050.32  E(vib)   ...       0.02 
freq.    1055.11  E(vib)   ...       0.02 
freq.    1067.68  E(vib)   ...       0.02 
freq.    1089.05  E(vib)   ...       0.02 
freq.    1097.74  E(vib)   ...       0.02 
freq.    1104.58  E(vib)   ...       0.02 
freq.    1106.60  E(vib)   ...       0.02 
freq.    1118.54  E(vib)   ...       0.01 
freq.    1120.28  E(vib)   ...       0.01 
freq.    1131.04  E(vib)   ...       0.01 
freq.    1148.42  E(vib)   ...       0.01 
freq.    1161.58  E(vib)   ...       0.01 
freq.    1170.82  E(vib)   ...       0.01 
freq.    1172.83  E(vib)   ...       0.01 
freq.    1190.39  E(vib)   ...       0.01 
freq.    1200.54  E(vib)   ...       0.01 
freq.    1213.48  E(vib)   ...       0.01 
freq.    1229.60  E(vib)   ...       0.01 
freq.    1232.97  E(vib)   ...       0.01 
freq.    1237.02  E(vib)   ...       0.01 
freq.    1260.71  E(vib)   ...       0.01 
freq.    1268.78  E(vib)   ...       0.01 
freq.    1273.62  E(vib)   ...       0.01 
freq.    1295.05  E(vib)   ...       0.01 
freq.    1306.73  E(vib)   ...       0.01 
freq.    1310.09  E(vib)   ...       0.01 
freq.    1310.81  E(vib)   ...       0.01 
freq.    1312.60  E(vib)   ...       0.01 
freq.    1335.40  E(vib)   ...       0.01 
freq.    1344.03  E(vib)   ...       0.01 
freq.    1348.42  E(vib)   ...       0.01 
freq.    1353.70  E(vib)   ...       0.01 
freq.    1357.30  E(vib)   ...       0.01 
freq.    1380.25  E(vib)   ...       0.01 
freq.    1385.87  E(vib)   ...       0.00 
freq.    1387.39  E(vib)   ...       0.00 
freq.    1392.20  E(vib)   ...       0.00 
freq.    1400.60  E(vib)   ...       0.00 
freq.    1400.64  E(vib)   ...       0.00 
freq.    1402.53  E(vib)   ...       0.00 
freq.    1417.15  E(vib)   ...       0.00 
freq.    1418.68  E(vib)   ...       0.00 
freq.    1440.86  E(vib)   ...       0.00 
freq.    1448.19  E(vib)   ...       0.00 
freq.    1458.35  E(vib)   ...       0.00 
freq.    1459.61  E(vib)   ...       0.00 
freq.    1470.28  E(vib)   ...       0.00 
freq.    1470.40  E(vib)   ...       0.00 
freq.    1472.70  E(vib)   ...       0.00 
freq.    1475.68  E(vib)   ...       0.00 
freq.    1482.24  E(vib)   ...       0.00 
freq.    1482.38  E(vib)   ...       0.00 
freq.    1485.25  E(vib)   ...       0.00 
freq.    1486.61  E(vib)   ...       0.00 
freq.    1490.70  E(vib)   ...       0.00 
freq.    1509.72  E(vib)   ...       0.00 
freq.    1510.22  E(vib)   ...       0.00 
freq.    1510.76  E(vib)   ...       0.00 
freq.    1531.16  E(vib)   ...       0.00 
freq.    1563.43  E(vib)   ...       0.00 
freq.    1590.41  E(vib)   ...       0.00 
freq.    1648.48  E(vib)   ...       0.00 
freq.    1665.43  E(vib)   ...       0.00 
freq.    1728.64  E(vib)   ...       0.00 
freq.    3014.43  E(vib)   ...       0.00 
freq.    3017.34  E(vib)   ...       0.00 
freq.    3026.92  E(vib)   ...       0.00 
freq.    3031.65  E(vib)   ...       0.00 
freq.    3040.47  E(vib)   ...       0.00 
freq.    3041.73  E(vib)   ...       0.00 
freq.    3053.27  E(vib)   ...       0.00 
freq.    3055.30  E(vib)   ...       0.00 
freq.    3057.38  E(vib)   ...       0.00 
freq.    3058.18  E(vib)   ...       0.00 
freq.    3094.80  E(vib)   ...       0.00 
freq.    3097.74  E(vib)   ...       0.00 
freq.    3098.09  E(vib)   ...       0.00 
freq.    3104.35  E(vib)   ...       0.00 
freq.    3106.90  E(vib)   ...       0.00 
freq.    3107.56  E(vib)   ...       0.00 
freq.    3108.20  E(vib)   ...       0.00 
freq.    3108.86  E(vib)   ...       0.00 
freq.    3117.00  E(vib)   ...       0.00 
freq.    3120.81  E(vib)   ...       0.00 
freq.    3121.15  E(vib)   ...       0.00 
freq.    3131.87  E(vib)   ...       0.00 
freq.    3195.14  E(vib)   ...       0.00 
freq.    3196.58  E(vib)   ...       0.00 
freq.    3203.45  E(vib)   ...       0.00 
freq.    3240.85  E(vib)   ...       0.00 
freq.    3249.64  E(vib)   ...       0.00 
freq.    3266.72  E(vib)   ...       0.00 

------------
INNER ENERGY
------------

The inner energy is: U= E(el) + E(ZPE) + E(vib) + E(rot) + E(trans)
    E(el)   - is the total energy from the electronic structure calculation
              = E(kin-el) + E(nuc-el) + E(el-el) + E(nuc-nuc)
    E(ZPE)  - the the zero temperature vibrational energy from the frequency calculation
    E(vib)  - the the finite temperature correction to E(ZPE) due to population
              of excited vibrational states
    E(rot)  - is the rotational thermal energy
    E(trans)- is the translational thermal energy

Summary of contributions to the inner energy U:
Electronic energy                ...  -1758.85890760 Eh
Zero point energy                ...      0.48928461 Eh     307.03 kcal/mol
Thermal vibrational correction   ...      0.02652698 Eh      16.65 kcal/mol
Thermal rotational correction    ...      0.00141627 Eh       0.89 kcal/mol
Thermal translational correction ...      0.00141627 Eh       0.89 kcal/mol
-----------------------------------------------------------------------
Total thermal energy                  -1758.34026347 Eh


Summary of corrections to the electronic energy:
(perhaps to be used in another calculation)
Total thermal correction                  0.02935952 Eh      18.42 kcal/mol
Non-thermal (ZPE) correction              0.48928461 Eh     307.03 kcal/mol
-----------------------------------------------------------------------
Total correction                          0.51864413 Eh     325.45 kcal/mol


--------
ENTHALPY
--------

The enthalpy is H = U + kB*T
                kB is Boltzmann's constant
Total free energy                 ...  -1758.34026347 Eh 
Thermal Enthalpy correction       ...      0.00094421 Eh       0.59 kcal/mol
-----------------------------------------------------------------------
Total Enthalpy                    ...  -1758.33931926 Eh


Note: Only C1 symmetry has been detected, increase convergence thresholds 
      if your molecule has a higher symmetry. Symmetry factor of 1.0 is   
      used for the rotational entropy correction. 
 

Note: Rotational entropy computed according to Herzberg 
Infrared and Raman Spectra, Chapter V,1, Van Nostrand Reinhold, 1945 
Point Group:  C1, Symmetry Number:   1  
Rotational constants in cm-1:     0.008008     0.001877     0.001739 

Vibrational entropy computed according to the QRRHO of S. Grimme
Chem.Eur.J. 2012 18 9955


-------
ENTROPY
-------

The entropy contributions are T*S = T*(S(el)+S(vib)+S(rot)+S(trans))
     S(el)   - electronic entropy
     S(vib)  - vibrational entropy
     S(rot)  - rotational entropy
     S(trans)- translational entropy
The entropies will be listed as multiplied by the temperature to get
units of energy

Electronic entropy                ...      0.00000000 Eh      0.00 kcal/mol
Vibrational entropy               ...      0.04797051 Eh     30.10 kcal/mol
Rotational entropy                ...      0.01775354 Eh     11.14 kcal/mol
Translational entropy             ...      0.02101854 Eh     13.19 kcal/mol
-----------------------------------------------------------------------
Final entropy term                ...      0.08674259 Eh     54.43 kcal/mol

In case the symmetry of your molecule has not been determined correctly
or in case you have a reason to use a different symmetry number we print 
out the resulting rotational entropy values for sn=1,12 :
 --------------------------------------------------------
|  sn= 1 | S(rot)=       0.01775354 Eh     11.14 kcal/mol|
|  sn= 2 | S(rot)=       0.01709908 Eh     10.73 kcal/mol|
|  sn= 3 | S(rot)=       0.01671625 Eh     10.49 kcal/mol|
|  sn= 4 | S(rot)=       0.01644463 Eh     10.32 kcal/mol|
|  sn= 5 | S(rot)=       0.01623394 Eh     10.19 kcal/mol|
|  sn= 6 | S(rot)=       0.01606180 Eh     10.08 kcal/mol|
|  sn= 7 | S(rot)=       0.01591625 Eh      9.99 kcal/mol|
|  sn= 8 | S(rot)=       0.01579017 Eh      9.91 kcal/mol|
|  sn= 9 | S(rot)=       0.01567896 Eh      9.84 kcal/mol|
|  sn=10 | S(rot)=       0.01557948 Eh      9.78 kcal/mol|
|  sn=11 | S(rot)=       0.01548949 Eh      9.72 kcal/mol|
|  sn=12 | S(rot)=       0.01540734 Eh      9.67 kcal/mol|
 --------------------------------------------------------


-------------------
GIBBS FREE ENERGY
-------------------

The Gibbs free energy is G = H - T*S

Total enthalpy                    ...  -1758.33931926 Eh 
Total entropy correction          ...     -0.08674259 Eh    -54.43 kcal/mol
-----------------------------------------------------------------------
Final Gibbs free energy         ...  -1758.42606185 Eh

For completeness - the Gibbs free energy minus the electronic energy
G-E(el)                           ...      0.43284575 Eh    271.61 kcal/mol



Timings for individual modules:

Sum of individual times         ...   894639.428 sec (=14910.657 min)
GTO integral calculation        ...       58.824 sec (=   0.980 min)   0.0 %
SCF iterations                  ...     2605.066 sec (=  43.418 min)   0.3 %
CIS module                      ...      470.699 sec (=   7.845 min)   0.1 %
SCF Gradient evaluation         ...     1460.278 sec (=  24.338 min)   0.2 %
Numerical frequency calculation ...   890044.561 sec (=14834.076 min)  99.5 %
                             ****ORCA TERMINATED NORMALLY****
TOTAL RUN TIME: 10 days 7 hours 40 minutes 23 seconds 716 msec
